Program Version,EnergyPlus, Version 8.7.0-78a111df4a, YMD=2018.02.08 22:16
1,5,Environment Title[],Latitude[deg],Longitude[deg],Time Zone[],Elevation[m]
2,6,Day of Simulation[],Month[],Day of Month[],DST Indicator[1=yes 0=no],Hour[],StartMinute[],EndMinute[],DayType
3,3,Cumulative Day of Simulation[],Month[],Day of Month[],DST Indicator[1=yes 0=no],DayType  ! When Daily Report Variables Requested
4,2,Cumulative Days of Simulation[],Month[]  ! When Monthly Report Variables Requested
5,1,Cumulative Days of Simulation[] ! When Run Period Report Variables Requested
6,1,Environment,Site Outdoor Air Drybulb Temperature [C] !TimeStep
7,1,Environment,Site Outdoor Air Relative Humidity [%] !TimeStep
8,1,Environment,Site Wind Speed [m/s] !TimeStep
9,1,Environment,Site Wind Direction [deg] !TimeStep
10,1,Environment,Site Sky Temperature [C] !TimeStep
11,1,Environment,Site Diffuse Solar Radiation Rate per Area [W/m2] !TimeStep
12,1,Environment,Site Direct Solar Radiation Rate per Area [W/m2] !TimeStep
13,1,Environment,Site Ground Temperature [C] !TimeStep
14,1,Environment,Site Outdoor Air Enthalpy [J/kg] !TimeStep
15,1,Environment,Site Outdoor Air Density [kg/m3] !TimeStep
16,1,Environment,Site Rain Status [] !TimeStep
233,1,BLOCK1:ZONE4,Zone Mean Air Temperature [C] !TimeStep,ON
234,1,BLOCK1:ZONE3,Zone Mean Air Temperature [C] !TimeStep,ON
235,1,BLOCK1:ZONE7,Zone Mean Air Temperature [C] !TimeStep,ON
236,1,BLOCK1:ZONE6,Zone Mean Air Temperature [C] !TimeStep,ON
237,1,BLOCK1:ZONE5,Zone Mean Air Temperature [C] !TimeStep,ON
238,1,BLOCK1:ZONE1,Zone Mean Air Temperature [C] !TimeStep,ON
239,1,BLOCK1:ZONE2,Zone Mean Air Temperature [C] !TimeStep,ON
240,1,BLOCK6:ZONE1,Zone Mean Air Temperature [C] !TimeStep,ON
726,1,PEOPLE BLOCK1:ZONE4,Zone Thermal Comfort Fanger Model PMV [] !TimeStep,ON
727,1,PEOPLE BLOCK1:ZONE3,Zone Thermal Comfort Fanger Model PMV [] !TimeStep,ON
728,1,PEOPLE BLOCK1:ZONE7,Zone Thermal Comfort Fanger Model PMV [] !TimeStep,ON
729,1,PEOPLE BLOCK1:ZONE6,Zone Thermal Comfort Fanger Model PMV [] !TimeStep,ON
730,1,PEOPLE BLOCK1:ZONE5,Zone Thermal Comfort Fanger Model PMV [] !TimeStep,ON
731,1,PEOPLE BLOCK1:ZONE1,Zone Thermal Comfort Fanger Model PMV [] !TimeStep,ON
732,1,PEOPLE BLOCK1:ZONE2,Zone Thermal Comfort Fanger Model PMV [] !TimeStep,ON
733,1,PEOPLE BLOCK6:ZONE1,Zone Thermal Comfort Fanger Model PMV [] !TimeStep,ON
End of Data Dictionary
1,SANTA MARIA, -29.70, -53.70,  -3.00, 114.00
2,1, 1, 1, 1, 1, 0.00,60.00,Sunday
6,16.4
7,74.0
8,1.9
9,0.0
10,8.937337811128032
11,0.0
12,0.0
13,24.18
14,38518.40914444194
15,1.1867456435709126
233,21.055569105052169
234,20.372904248711419
235,24.43820862581793
236,19.530463007660609
237,24.08132807310888
238,23.773624207691634
239,20.841342070204026
240,24.46318550837563
726,-1.518597421601992
727,-4.65072795431609
728,-1.199479476592438
729,-4.607545778716816
730,-0.8427274036239104
731,-1.0053331696432455
732,-1.4693443490971845
733,-0.6698174360289045
16,0.0
2,1, 1, 1, 1, 2, 0.00,60.00,Sunday
6,16.1
7,76.0
8,2.2
9,0.0
10,7.5520898046934239
11,0.0
12,0.0
13,24.18
14,38358.626361704206
15,1.18905531979585
233,21.93410242622436
234,20.30497277676887
235,24.62963592303542
236,21.121740903364555
237,24.224759996296308
238,23.90279475959945
239,22.484936557963715
240,24.27906279474958
726,-1.6599879285123985
727,-4.662188604136993
728,-1.1661926673026236
729,-4.86561666773897
730,-0.8449783150489598
731,-0.9887665216813305
732,-1.5979238476806069
733,-0.738809142343526
16,0.0
2,1, 1, 1, 1, 3, 0.00,60.00,Sunday
6,15.7
7,79.0
8,2.4
9,0.0
10,7.152512863335971
11,0.0
12,0.0
13,24.18
14,38247.52577358087
15,1.190480107100925
233,22.046639050028149
234,20.0625753360205
235,24.676767681538587
236,20.912811174225799
237,24.25064094028587
238,23.94003586805995
239,22.574668318399057
240,24.116023496247839
726,-1.5200514767124898
727,-4.688235520462378
728,-1.1382879253511785
729,-4.408069236325589
730,-0.8421420100617161
731,-0.9705677899288796
732,-1.2900767036412784
733,-0.7969310298961462
16,0.0
2,1, 1, 1, 1, 4, 0.00,60.00,Sunday
6,15.3
7,82.0
8,2.6
9,0.0
10,5.94341561115192
11,0.0
12,0.0
13,24.18
14,38105.138085533414
15,1.1919321643551578
233,21.973625421592226
234,21.340996014235878
235,24.743119866470108
236,20.90913643153864
237,24.290232947504728
238,23.985897867395147
239,22.551486001965068
240,23.921737909234215
726,-1.5243886383549202
727,-4.7701109572394249
728,-1.136199433273658
729,-4.470124479979893
730,-0.8613391713515478
731,-0.9684019767743475
732,-1.279069878173851
733,-0.8519779855584859
16,0.0
2,1, 1, 1, 1, 5, 0.00,60.00,Sunday
6,14.9
7,84.0
8,2.9
9,0.0
10,5.536869134233484
11,0.0
12,0.0
13,24.18
14,37635.70034269455
15,1.1948252795460309
233,21.726738153389698
234,20.153743804080049
235,24.8100902944641
236,20.377201895997673
237,24.328883675798378
238,24.028680077618078
239,22.18506765578433
240,23.776479956119088
726,-1.563927862172279
727,-4.427499197657295
728,-1.1308760324642123
729,-4.47617264075818
730,-0.8799776919435578
731,-0.9663275609040655
732,-1.2902262349266492
733,-0.913571669055339
16,0.0
2,1, 1, 1, 1, 6, 0.00,60.00,Sunday
6,14.5
7,88.0
8,3.1
9,0.0
10,5.332926905358363
11,0.0
12,0.0
13,24.18
14,37707.917892968355
15,1.1961261923124238
233,21.44961109454407
234,20.015040740592867
235,24.834906347018547
236,20.043959829753484
237,24.327815779325314
238,24.02828947098587
239,21.875655115327889
240,23.630369758011047
726,-1.6395589269910227
727,-4.762786037892342
728,-1.1253806030758702
729,-4.648291869742896
730,-0.8943075895669127
731,-0.9630769442657517
732,-1.3711163884182538
733,-0.9621668178298486
16,0.0
2,1, 1, 1, 1, 7, 0.00,60.00,Sunday
6,15.3
7,82.0
8,3.1
9,0.0
10,5.332926905358363
11,55.0
12,158.0
13,24.18
14,38082.12492320085
15,1.1931401104662714
233,21.25681357870515
234,20.028050737707067
235,24.408075930508475
236,20.267679849102714
237,24.04095592927682
238,23.824404819781927
239,21.576577192161126
240,23.52614106387322
726,-1.6964566476077779
727,-4.822039115308613
728,-1.1194327830503348
729,-4.749588312018525
730,-0.8777402176265055
731,-0.9328534560752467
732,-1.4314156200780828
733,-0.9897812331175896
16,0.0
2,1, 1, 1, 1, 8, 0.00,60.00,Sunday
6,16.2
7,77.0
8,3.1
9,0.0
10,6.146024394745439
11,103.0
12,619.0
13,24.18
14,38879.87343058325
15,1.18951953830162
233,20.060152745053686
234,19.835436477622154
235,20.526645092178148
236,18.902339501362979
237,21.20350239774682
238,20.392664218616454
239,20.020257827765734
240,19.279131766389609
726,-1.6899698238532815
727,-4.8192488528516199
728,-1.2034418071408629
729,-4.6963229670544559
730,-0.8959517314985432
731,-0.9177998528881218
732,-1.4754061920558386
733,-0.9815151068124789
16,0.0
2,1, 1, 1, 1, 9, 0.00,60.00,Sunday
6,17.0
7,72.0
8,3.1
9,180.0
10,6.952081907257593
11,161.0
12,563.0
13,24.18
14,39327.17670620119
15,1.18651444739062
233,20.972723532830739
234,20.195551355092829
235,20.088062643804276
236,20.808364269685915
237,21.621410181051407
238,19.790155222774108
239,21.04779584360668
240,20.100727324429049
726,-1.877403653085414
727,-4.8891627932915659
728,-2.1098966457463947
729,-5.1252598904399389
730,-1.426384796263158
731,-1.577163794516869
732,-1.7873487165293079
733,-1.8856837232064399
16,0.0
2,1, 1, 1, 1,10, 0.00,60.00,Sunday
6,17.8
7,68.0
8,3.1
9,180.0
10,7.751240046876092
11,236.0
12,482.0
13,24.18
14,39995.783478815116
15,1.1833618065420034
233,21.200181535514209
234,20.137912837636646
235,20.1930146338514
236,20.860825617522957
237,21.679838204883248
238,19.83878350813416
239,21.114202880700988
240,20.12990695590728
726,-1.662440540705785
727,-4.807451647519127
728,-2.2267676944135355
729,-4.568952306374536
730,-1.3234902390429253
731,-1.7070773140072873
732,-1.5833027720075715
733,-1.6819000064768946
16,0.0
2,1, 1, 1, 1,11, 0.00,60.00,Sunday
6,18.7
7,64.0
8,3.1
9,180.0
10,8.543635054473782
11,235.0
12,602.0
13,24.18
14,40822.64086137488
15,1.1797805227552039
233,21.279766185645856
234,20.38299773321219
235,20.34717785105901
236,21.28118871271941
237,21.42254652223311
238,20.19045157789776
239,20.89580395836093
240,20.325694854044025
726,-1.5920278213780735
727,-4.8232877610013828
728,-2.2079564707547059
729,-4.55252059721002
730,-1.2789593829390187
731,-1.7456189150059252
732,-1.5770771086133433
733,-1.627820161987667
16,0.0
2,1, 1, 1, 1,12, 0.00,60.00,Sunday
6,19.5
7,60.0
8,3.1
9,180.0
10,9.329398990383425
11,284.0
12,743.0
13,24.18
14,41336.70412185948
15,1.1756036337402656
233,21.345736736612584
234,20.931911443493033
235,20.274823829732765
236,21.640912871862189
237,21.02689145145058
238,20.21746758596861
239,20.911718020814058
240,20.371724817861787
726,-1.5501931975875219
727,-4.743428589396011
728,-2.1443447472010037
729,-4.42132921287822
730,-1.2484841966732719
731,-1.6622841492350938
732,-1.6024021226834587
733,-1.4972192584555216
16,0.0
2,1, 1, 1, 1,13, 0.00,60.00,Sunday
6,20.3
7,56.0
8,3.1
9,180.0
10,9.524818961273752
11,233.0
12,567.0
13,24.18
14,41729.71166313516
15,1.1727090500758178
233,21.63530624223165
234,21.609967778920244
235,20.87893539022517
236,22.157523755919124
237,21.66018036357984
238,20.615493433620434
239,21.303316293007215
240,21.005407715043679
726,-1.5254954917829898
727,-4.578451460246396
728,-2.170572637511903
729,-4.313621686368726
730,-1.3038014875211353
731,-1.685365412283814
732,-1.5929011697715517
733,-1.4569625697001918
16,0.0
2,1, 1, 1, 1,14, 0.00,60.00,Sunday
6,21.2
7,53.0
8,3.1
9,180.0
10,10.30247367791759
11,258.0
12,795.0
13,24.18
14,42656.09924807168
15,1.169117571827395
233,22.081099012372137
234,22.22120782977173
235,21.632958902610139
236,22.657202100765308
237,22.32391929763601
238,21.352351668080538
239,21.86549946779161
240,21.81885601310089
726,-1.4539495942525705
727,-4.365426634623705
728,-2.0033737917348288
729,-4.14965631005797
730,-1.1192535224202743
731,-1.6018006390936859
732,-1.5038848790778708
733,-1.2502392146616004
16,0.0
2,1, 1, 1, 1,15, 0.00,60.00,Sunday
6,22.0
7,50.0
8,3.1
9,180.0
10,11.073780055127827
11,217.0
12,781.0
13,24.18
14,43271.597341962086
15,1.1660948804546756
233,22.541076883718679
234,22.80616930788621
235,22.31623809441484
236,23.22034488362351
237,22.923988884071258
238,22.110622288338879
239,22.435808018952444
240,22.534193187261907
726,-1.3436093678622517
727,-4.164329377326997
728,-1.804338990621124
729,-3.9849345732538197
730,-0.9538798435321322
731,-1.4453800023215422
732,-1.375861560232665
733,-1.0123452357066554
16,0.0
2,1, 1, 1, 1,16, 0.00,60.00,Sunday
6,21.3
7,54.0
8,2.8
9,180.0
10,9.91444747927602
11,147.0
12,790.0
13,24.18
14,43302.40597043742
15,1.168323477141796
233,22.566361932509336
234,22.36943792969246
235,21.79769874866888
236,22.885081342286126
237,22.535057712766393
238,21.430087878608334
239,22.24523162624432
240,22.117745660457279
726,-1.2316376946439725
727,-3.9776397974151966
728,-1.6326453755061086
729,-3.8020149830345537
730,-0.8358533716883856
731,-1.2923657015674082
732,-1.2502580576171423
733,-0.8178594968325355
16,0.0
2,1, 1, 1, 1,17, 0.00,60.00,Sunday
6,20.7
7,57.0
8,2.6
9,180.0
10,9.524818961273752
11,177.0
12,686.0
13,24.18
14,43097.281190298236
15,1.1692420273128495
233,22.35377066226589
234,21.875256967773063
235,21.326103926928626
236,22.54658806723493
237,22.103684704375789
238,20.91149553080646
239,21.904462366561704
240,21.66414267765719
726,-1.2055854845891263
727,-4.067711168759166
728,-1.7219147148483905
729,-3.86658224601735
730,-0.9084512588879318
731,-1.404503368136758
732,-1.2750937458706034
733,-0.8711797666107387
16,0.0
2,1, 1, 1, 1,18, 0.00,60.00,Sunday
6,20.0
7,62.0
8,2.3
9,180.0
10,8.148274592497842
11,93.0
12,632.0
13,24.18
14,43325.103411018106
15,1.171344321831812
233,22.089877358229719
234,21.303390664363616
235,20.800838804446316
236,22.220235671602933
237,21.595388712795296
238,20.30080607990108
239,21.538469435722214
240,21.170385292742773
726,-1.2313048003688246
727,-4.190560444015224
728,-1.8207333610430217
729,-3.9430517364279278
730,-1.0360638986899167
731,-1.5191041845300438
732,-1.3382162555661892
733,-0.98364154792678
16,0.0
2,1, 1, 1, 1,19, 0.00,60.00,Sunday
6,19.3
7,67.0
8,2.0
9,180.0
10,6.7512197616709959
11,58.0
12,481.0
13,24.18
14,43426.909917289246
15,1.1735490980840758
233,21.68838077542958
234,20.67247034222383
235,20.416874434033475
236,21.80591359667465
237,21.171930159978147
238,20.42646391803864
239,21.12868770823228
240,20.732538796866217
726,-1.2769636173395703
727,-4.334730182700972
728,-1.9336558370126176
729,-4.013610893287338
730,-1.1831537492820159
731,-1.6174519710089084
732,-1.4081705188548655
733,-1.1306030877127474
16,0.0
2,1, 1, 1, 1,20, 0.00,60.00,Sunday
6,18.7
7,72.0
8,1.8
9,180.0
10,6.146024394745439
11,10.0
12,104.0
13,24.18
14,43670.45693504275
15,1.1753326526214337
233,22.20083182894365
234,20.640243662331668
235,23.32390139747476
236,21.770867715976679
237,23.245645899202335
238,22.797280802011949
239,21.87921070203507
240,24.324303568810277
726,-1.3598639012097416
727,-4.505268123561293
728,-2.0667321454463196
729,-4.1148571626369379
730,-1.320280204954487
731,-1.6225513351869854
732,-1.4913075415569067
733,-1.3119386816549002
16,0.0
2,1, 1, 1, 1,21, 0.00,60.00,Sunday
6,18.0
7,77.0
8,1.5
9,270.0
10,4.306433483985984
11,0.0
12,0.0
13,24.18
14,43547.92489318854
15,1.177721835680087
233,22.190585116039274
234,20.262540011508649
235,23.60157094387516
236,21.136474184614138
237,23.463151015676244
238,23.036608655667896
239,22.028682073102993
240,24.991577406276336
726,-1.283460520303307
727,-4.499649036288309
728,-1.4169384057091444
729,-4.105565686326694
730,-0.9424139457108934
731,-1.185562774661099
732,-1.3473281368736448
733,-0.6292652720039863
16,0.0
2,1, 1, 1, 1,22, 0.00,60.00,Sunday
6,17.9
7,77.0
8,1.6
9,270.0
10,4.306433483985984
11,0.0
12,0.0
13,24.18
14,43283.28379231729
15,1.1782458660945719
233,21.748398692049805
234,20.291327254873268
235,24.154188071393773
236,21.128170803836
237,23.906153371969645
238,23.59453405218504
239,21.70268985244556
240,25.021841163488774
726,-1.3101531998317968
727,-4.620785590233636
728,-1.3414448503357562
729,-4.278251651160628
730,-0.9082029150005463
731,-1.1366512527243325
732,-1.3243131373195166
733,-0.5247228785956128
16,0.0
2,1, 1, 1, 1,23, 0.00,60.00,Sunday
6,17.8
7,77.0
8,1.7
9,270.0
10,4.099761881760685
11,0.0
12,0.0
13,24.18
14,43019.59219314941
15,1.1787695994807755
233,21.73662594131015
234,20.14960857021234
235,24.205884148649337
236,21.055160088699777
237,23.955280308853909
238,23.632849771802083
239,21.662041984337337
240,24.86123338351814
726,-1.4231874567281505
727,-4.614610852747211
728,-1.2192300070236984
729,-4.289071207729607
730,-0.8295094881267022
731,-1.0224968209707175
732,-1.387855509412166
733,-0.5519492581924077
16,0.0
2,1, 1, 1, 1,24, 0.00,60.00,Sunday
6,17.7
7,77.0
8,1.8
9,270.0
10,3.89262706263969
11,0.0
12,0.0
13,24.18
14,42731.50560749447
15,1.180491016007277
233,21.595254549247565
234,20.074509341182549
235,24.205227323274746
236,20.991171688868385
237,23.953112988002887
238,23.657634925873709
239,21.618597403393367
240,24.65486218192082
726,-1.4575879015413425
727,-4.667229435113535
728,-1.2081350387462027
729,-4.318608961529763
730,-0.833191252172428
731,-1.0126418583609119
732,-1.4041772762126339
733,-0.6137327191155847
16,0.0
2,2, 1, 2, 1, 1, 0.00,60.00,Monday
6,17.6
7,77.0
8,1.9
9,270.0
10,3.89262706263969
11,0.0
12,0.0
13,24.18
14,42469.86449192239
15,1.181014575649281
233,21.532464337446883
234,21.415888793263169
235,24.169878853547965
236,20.82748164840241
237,23.92219892604853
238,23.647775897938904
239,21.89673927332312
240,24.46278200772845
726,-1.5150202512389455
727,-4.7043896761003449
728,-1.2107271030050202
729,-4.34776006012062
730,-0.8487099262204154
731,-1.007132727610813
732,-1.4221341304125928
733,-0.6798993861862587
16,0.0
2,2, 1, 2, 1, 2, 0.00,60.00,Monday
6,17.4
7,77.0
8,2.0
9,270.0
10,3.6850265968540727
11,0.0
12,0.0
13,24.18
14,41949.380386503806
15,1.1820608311139068
233,21.570817473154948
234,20.051767146906714
235,24.06837041727602
236,20.71518236367639
237,23.80737214373436
238,23.562306636341466
239,21.783548486440009
240,24.264196220233015
726,-1.5533582879564374
727,-4.297286740612031
728,-1.2224873400853683
729,-4.4090982023886779
730,-0.8710805550230855
731,-1.0100027208485392
732,-1.372461574776405
733,-0.7412929711771762
16,0.0
2,2, 1, 2, 1, 3, 0.00,60.00,Monday
6,17.3
7,77.0
8,2.1
9,270.0
10,3.4769580345465558
11,0.0
12,0.0
13,24.18
14,41690.52622934968
15,1.1825835335184352
233,21.382310492422829
234,21.190281134534076
235,24.023395814111877
236,20.61563965763564
237,23.76515174129731
238,23.541262005646716
239,21.765233697913826
240,24.11085460886983
726,-1.5741364906415388
727,-4.713344549428123
728,-1.2503675901582039
729,-4.4561889305610669
730,-0.9120669954704159
731,-1.0310027344226685
732,-1.4053775662360222
733,-0.7995744042972115
16,0.0
2,2, 1, 2, 1, 4, 0.00,60.00,Monday
6,17.2
7,77.0
8,2.2
9,270.0
10,3.4769580345465558
11,0.0
12,0.0
13,24.18
14,41408.12270882541
15,1.184305996058987
233,21.47289463753603
234,20.269765079365109
235,23.921296619704756
236,20.538329072404566
237,23.647729844138433
238,23.447206339852277
239,21.784423415376616
240,23.95491429713327
726,-1.6324008353490938
727,-4.375573728599021
728,-1.2658686956008432
729,-4.498809685080147
730,-0.9360314582784564
731,-1.037990275050042
732,-1.4146311777386008
733,-0.8481923436118575
16,0.0
2,2, 1, 2, 1, 5, 0.00,60.00,Monday
6,17.1
7,77.0
8,2.3
9,270.0
10,3.268418905544422
11,0.0
12,0.0
13,24.18
14,41151.26346916448
15,1.1848285540551507
233,21.370206295988955
234,21.034131045132356
235,23.904571199887579
236,20.911565837655727
237,23.59055075462669
238,23.406986701586495
239,21.9315387236164
240,23.830781191147616
726,-1.6379628150870367
727,-4.662106072848935
728,-1.2972995021664995
729,-4.534514306713408
730,-0.9787521818120279
731,-1.0634721210591279
732,-1.4233691269774518
733,-0.8959789910606205
16,0.0
2,2, 1, 2, 1, 6, 0.00,60.00,Monday
6,17.0
7,77.0
8,2.4
9,270.0
10,3.268418905544422
11,0.0
12,0.0
13,24.18
14,40895.31456868788
15,1.1853508363867389
233,22.016142208402987
234,20.98222389024597
235,23.94992201701048
236,21.89070199715136
237,23.62346995948882
238,23.436681087741076
239,22.738513098877666
240,23.72473466161447
726,-1.6750605906509626
727,-4.450186097995053
728,-1.308463262261238
729,-4.416353905623702
730,-1.0066970495783557
731,-1.0756246816426989
732,-1.400599699711524
733,-0.9347601048672092
16,0.0
2,2, 1, 2, 1, 7, 0.00,60.00,Monday
6,18.0
7,73.0
8,2.3
9,270.0
10,4.099761881760685
11,35.0
12,502.0
13,24.18
14,42156.174828743344
15,1.1811034955000644
233,22.192311652813016
234,21.92857743504106
235,23.1192229412161
236,21.86600104673554
237,23.0540862018557
238,23.034716868284876
239,22.70152138349207
240,23.064926110116209
726,-1.5160616829056486
727,-4.471350613000934
728,-1.2890929634153925
729,-4.1332511427307418
730,-0.9806129327446634
731,-1.00288652797533
732,-1.2309307139621706
733,-0.9412706904575195
16,0.0
2,2, 1, 2, 1, 8, 0.00,60.00,Monday
6,19.0
7,68.0
8,2.2
9,270.0
10,5.128535628668999
11,57.0
12,763.0
13,24.18
14,42976.9585561544
15,1.1772089596907345
233,20.21766243758033
234,20.480342475860298
235,20.247032844971874
236,21.29454495712854
237,20.831745448316643
238,20.322136278029384
239,20.75319802311474
240,20.465543403513349
726,-1.410566244191079
727,-4.184451288999553
728,-1.4683302294197629
729,-4.130831413693894
730,-1.0640937609433059
731,-1.0276669142859297
732,-1.220599406488036
733,-1.0402029966047362
16,0.0
2,2, 1, 2, 1, 9, 0.00,60.00,Monday
6,20.0
7,64.0
8,2.1
9,90.0
10,5.94341561115192
11,78.0
12,875.0
13,24.18
14,44061.46091228938
15,1.1719769304734667
233,20.75106609168155
234,21.655934627580174
235,21.005350041639376
236,22.260470685005484
237,21.446959540588446
238,20.78168812298429
239,21.118363333791107
240,21.179562347275025
726,-1.71281415286541
727,-4.612981922928984
728,-2.1265177835186699
729,-4.2989742728946489
730,-1.472784102574854
731,-1.533394907015159
732,-1.5839134850226882
733,-1.5513513701868718
16,0.0
2,2, 1, 2, 1,10, 0.00,60.00,Monday
6,21.0
7,60.0
8,2.0
9,90.0
10,6.952081907257593
11,93.0
12,919.0
13,24.18
14,45014.98750392672
15,1.1680428017372396
233,21.690333564456723
234,22.256682274166957
235,21.832223054122637
236,22.772577156967267
237,22.208893757071065
238,21.590283803201858
239,22.331927330681905
240,22.051681383737635
726,-1.5563004413672388
727,-4.2548401386774119
728,-1.9371683099124473
729,-4.0041590972622169
730,-1.286883515400293
731,-1.4360312356400003
732,-1.5025998193070767
733,-1.3257852931656218
16,0.0
2,2, 1, 2, 1,11, 0.00,60.00,Monday
6,22.0
7,57.0
8,1.9
9,90.0
10,9.329398990383425
11,101.0
12,888.0
13,24.18
14,46280.02072565495
15,1.163909341787394
233,22.59360685146969
234,22.971811707864707
235,22.704266277471775
236,23.374281178651179
237,23.050948058553958
238,22.421085324324556
239,23.40765695250382
240,22.973883909036475
726,-1.3349034993152445
727,-4.058093849571335
728,-1.7208338157100474
729,-3.8375503509636554
730,-1.0731160725433867
731,-1.2787342245037617
732,-1.2470229256630039
733,-1.0495327919022933
16,0.0
2,2, 1, 2, 1,12, 0.00,60.00,Monday
6,23.0
7,53.0
8,1.8
9,90.0
10,10.30247367791759
11,107.0
12,940.0
13,24.18
14,47033.99351059083
15,1.159014152208067
233,23.41257417182222
234,23.559725292206676
235,23.481607015520038
236,23.816918836775498
237,23.76953082229983
238,23.161323988104198
239,24.2988626843006
240,23.8875397655884
726,-1.1236492775790579
727,-3.8197877091498118
728,-1.4792593625486279
729,-3.6330265933793299
730,-0.8266384101267534
731,-1.1113143392010439
732,-1.0001979265840649
733,-0.7461529718578095
16,0.0
2,2, 1, 2, 1,13, 0.00,60.00,Monday
6,24.0
7,50.0
8,1.7
9,90.0
10,12.219097197280235
11,159.0
12,906.0
13,24.18
14,48105.741980335406
15,1.1550781964232786
233,23.778848428054699
234,24.03561845201102
235,24.184423733198658
236,24.219516743196239
237,24.511690908859877
238,23.925515588530339
239,24.42341939857104
240,24.790944275887904
726,-0.9367129827801969
727,-3.6155945636089719
728,-1.2557576132424913
729,-3.472758097922861
730,-0.5952187679980383
731,-0.9527639766503255
732,-0.7809282551326289
733,-0.44466893622405109
16,0.0
2,2, 1, 2, 1,14, 0.00,60.00,Monday
6,25.0
7,47.0
8,1.6
9,90.0
10,13.163103132537004
11,107.0
12,927.0
13,24.18
14,49078.59877578408
15,1.1512394761214556
233,24.077162093370153
234,24.333449041009833
235,24.962008522152286
236,24.66043362384513
237,25.302801078022644
238,24.49384443333555
239,24.738518774675346
240,25.828138342544649
726,-0.8296031084959827
727,-3.435861803165185
728,-1.042830043007202
729,-3.3160482734000324
730,-0.3859913232747938
731,-0.7810897800055628
732,-0.7117012379376639
733,-0.14836180889594276
16,0.0
2,2, 1, 2, 1,15, 0.00,60.00,Monday
6,26.0
7,45.0
8,1.5
9,90.0
10,14.839153853901621
11,115.0
12,858.0
13,24.18
14,50515.92321758071
15,1.1459482524609129
233,24.30397638489098
234,24.542465503646743
235,25.436493128990184
236,25.10983708310652
237,25.995825149980715
238,24.422732441750065
239,24.64458494851307
240,26.992865214774029
726,-0.7334809304193258
727,-3.308175156393272
728,-0.8156138056393911
729,-3.1458824204692288
730,-0.18339151529264129
731,-0.6398150645817305
732,-0.6075615437939166
733,0.16110340277925049
16,0.0
2,2, 1, 2, 1,16, 0.00,60.00,Monday
6,25.2
7,48.0
8,1.3
9,90.0
10,13.350787994465407
11,132.0
12,845.0
13,24.18
14,50123.90553614333
15,1.14871682952865
233,24.568675455290014
234,24.74963879873617
235,25.340738149753489
236,24.98812870979168
237,25.566370773688865
238,25.023435544916198
239,24.976883576220687
240,26.167292070168469
726,-0.6501347069169667
727,-3.207380307865271
728,-0.64103380936463
729,-2.9646480946141349
730,-0.013651071764817674
731,-0.6212222648038726
732,-0.58961808791762
733,0.49811020229198119
16,0.0
2,2, 1, 2, 1,17, 0.00,60.00,Monday
6,24.3
7,52.0
8,1.2
9,90.0
10,12.597822777982515
11,110.0
12,761.0
13,24.18
14,49874.06285451715
15,1.1517121948163336
233,24.462549333756394
234,24.48123119340305
235,24.693704479163928
236,24.823660286857554
237,25.12041699878853
238,24.34818300835714
239,24.513454081346226
240,25.521030535754059
726,-0.5633069690937754
727,-3.1080815248497859
728,-0.6283179814988632
729,-2.9556066782935228
730,-0.08959842282842902
731,-0.47939180520916749
732,-0.49636995044050377
733,0.37389484606195719
16,0.0
2,2, 1, 2, 1,18, 0.00,60.00,Monday
6,23.5
7,55.0
8,1.0
9,90.0
10,10.88154201479091
11,61.0
12,740.0
13,24.18
14,49262.88615364502
15,1.154669076524779
233,23.994574510289057
234,23.91208313916352
235,24.175219747587556
236,24.55477215830334
237,24.639314874572919
238,23.66255936012332
239,24.11519476811123
240,24.94147642598994
726,-0.5465555741797354
727,-3.1269401863519046
728,-0.7305573737490524
729,-2.962125623170078
730,-0.2052205722464044
731,-0.5961587926038856
732,-0.5692723962747074
733,0.23794483106687928
16,0.0
2,2, 1, 2, 1,19, 0.00,60.00,Monday
6,22.7
7,59.0
8,0.8
9,90.0
10,10.30247367791759
11,40.0
12,513.0
13,24.18
14,49018.772076058944
15,1.157377553591129
233,23.489924092636668
234,23.277858343775919
235,23.5301174677855
236,24.211305132343843
237,24.049308664458054
238,23.053416717556286
239,23.584158869357855
240,24.210924731721496
726,-0.6278955589518966
727,-3.2655363030147099
728,-0.8342870556085736
729,-3.010193470467014
730,-0.3399400793410229
731,-0.6954715672925165
732,-0.6468778003531959
733,0.067313466568628
16,0.0
2,2, 1, 2, 1,20, 0.00,60.00,Monday
6,21.8
7,64.0
8,0.7
9,90.0
10,8.148274592497842
11,10.0
12,131.0
13,24.18
14,48841.37824463345
15,1.1592102085940624
233,24.11113059800591
234,22.798684326316385
235,25.173698677448799
236,23.975272097792606
237,25.03192327151998
238,24.64532481294236
239,23.817630382869525
240,27.236163404831783
726,-0.7307787618315598
727,-3.4220784951205647
728,-1.0139264130859985
729,-3.081962199162158
730,-0.5088155914186298
731,-0.8365731642784302
732,-0.7517969828403335
733,-0.18141927347503015
16,0.0
2,2, 1, 2, 1,21, 0.00,60.00,Monday
6,21.0
7,69.0
8,0.5
9,140.0
10,7.352514783551328
11,0.0
12,0.0
13,24.18
14,48748.87629085861
15,1.1618371215786272
233,23.873439759211054
234,22.231718692508858
235,25.273240319551918
236,23.642926612586885
237,25.143523465521829
238,24.798097287806
239,23.594694776006656
240,27.528764179469677
726,-0.6310347592308029
727,-3.5309485796532598
728,-0.6554239897460916
729,-3.1176696217327866
730,-0.34384020383481309
731,-0.5511912933669284
732,-0.7060253060511623
733,0.3627332403419315
16,0.0
2,2, 1, 2, 1,22, 0.00,60.00,Monday
6,20.4
7,71.0
8,0.5
9,140.0
10,6.7512197616709959
11,0.0
12,0.0
13,24.18
14,47898.85326690148
15,1.1643821363329235
233,23.675769249634358
234,22.37386875245469
235,25.73361296019271
236,23.06951295923912
237,25.40795827884714
238,25.131933412627718
239,23.546911902075629
240,27.418431212153175
726,-0.6961847749667732
727,-3.6759571529445678
728,-0.6288689815308383
729,-3.185718403933342
730,-0.3410228504517132
731,-0.5221937780190828
732,-0.7494445621130764
733,0.3677225922749074
16,0.0
2,2, 1, 2, 1,23, 0.00,60.00,Monday
6,19.8
7,73.0
8,0.5
9,140.0
10,6.3481932020228559
11,0.0
12,0.0
13,24.18
14,46996.79379733861
15,1.1681449117014029
233,23.46910845830106
234,21.88900931392321
235,25.772565836209809
236,22.731741161440764
237,25.50179389704536
238,25.22081987799661
239,23.365749779075757
240,27.15932197717308
726,-0.758029655069073
727,-3.636081954358198
728,-0.5302714286502084
729,-3.350805789297722
730,-0.299684368959893
731,-0.45320303272012615
732,-0.7622122568199938
733,0.29535053277580927
16,0.0
2,2, 1, 2, 1,24, 0.00,60.00,Monday
6,19.2
7,76.0
8,0.6
9,140.0
10,5.740364610542656
11,0.0
12,0.0
13,24.18
14,46463.758060677545
15,1.1704826897498473
233,23.17076478341216
234,21.53383466409826
235,25.71761218503523
236,22.427838001191128
237,25.45420564712038
238,25.201286287443254
239,23.06131900075038
240,26.833559450985754
726,-0.8290573717939259
727,-3.7877574238726976
728,-0.5259306181886959
729,-3.457901741619402
730,-0.3001660353159518
731,-0.43518665978653905
732,-0.8082601092867917
733,0.19729472119949924
16,0.0
2,3, 1, 3, 1, 1, 0.00,60.00,Tuesday
6,18.6
7,79.0
8,0.6
9,140.0
10,5.128535628668999
11,0.0
12,0.0
13,24.18
14,45882.914700558074
15,1.1728649882593912
233,22.916684186095
234,21.10971392969669
235,25.58482675426562
236,22.058559061924695
237,25.321512496981524
238,25.1032887719494
239,22.77444085077071
240,26.5191648112549
726,-0.9192113054775827
727,-3.9020433409511785
728,-0.5438565039979334
729,-3.553534276523562
730,-0.32867836519973039
731,-0.4393371320484366
732,-0.8771184425699786
733,0.09234314979276764
16,0.0
2,3, 1, 3, 1, 2, 0.00,60.00,Tuesday
6,17.9
7,82.0
8,0.6
9,140.0
10,4.306433483985984
11,0.0
12,0.0
13,24.18
14,44954.026814989564
15,1.1770179795073784
233,22.607711658639205
234,20.600465822704217
235,25.407076795405918
236,21.61176749560324
237,25.14194266194014
238,24.96440978429282
239,22.418728574005109
240,26.20721248985976
726,-0.9997574510264125
727,-4.042249597442189
728,-0.5806920932105912
729,-3.6731805623617985
730,-0.3772386986959164
731,-0.4609053530341994
732,-0.9438693274025128
733,-0.0077768913793605279
16,0.0
2,3, 1, 3, 1, 3, 0.00,60.00,Tuesday
6,17.3
7,85.0
8,0.6
9,140.0
10,3.89262706263969
11,0.0
12,0.0
13,24.18
14,44286.319129488045
15,1.1794883778926824
233,22.323534771727588
234,20.167846942715714
235,25.243287131437336
236,21.237330249619146
237,24.969601593812145
238,24.826967217095555
239,22.11448032162104
240,25.901636162485088
726,-1.0947834964649038
727,-4.219565923588514
728,-0.6304863820562952
729,-3.826880855033907
730,-0.4342980738116172
731,-0.49227314297438526
732,-1.0298295119286825
733,-0.10427677349115973
16,0.0
2,3, 1, 3, 1, 4, 0.00,60.00,Tuesday
6,16.7
7,87.0
8,0.7
9,140.0
10,3.268418905544422
11,0.0
12,0.0
13,24.18
14,43270.272739847875
15,1.1822261551267588
233,22.238509618260236
234,21.46950516720038
235,25.138818424145886
236,20.665408233191216
237,24.87988066289226
238,24.756871301998449
239,22.393501460580035
240,25.64161346937528
726,-1.1865210892022249
727,-4.376708433270759
728,-0.6806697132892144
729,-3.9617038330235738
730,-0.49437233572181568
731,-0.5280628156190139
732,-1.1062317957210635
733,-0.1998127587943432
16,0.0
2,3, 1, 3, 1, 5, 0.00,60.00,Tuesday
6,16.1