Program Version,EnergyPlus, Version 8.7.0-78a111df4a, YMD=2018.01.28 12:27
1,5,Environment Title[],Latitude[deg],Longitude[deg],Time Zone[],Elevation[m]
2,6,Day of Simulation[],Month[],Day of Month[],DST Indicator[1=yes 0=no],Hour[],StartMinute[],EndMinute[],DayType
3,3,Cumulative Day of Simulation[],Month[],Day of Month[],DST Indicator[1=yes 0=no],DayType  ! When Daily Report Variables Requested
4,2,Cumulative Days of Simulation[],Month[]  ! When Monthly Report Variables Requested
5,1,Cumulative Days of Simulation[] ! When Run Period Report Variables Requested
6,1,Environment,Site Outdoor Air Drybulb Temperature [C] !TimeStep
7,1,Environment,Site Outdoor Air Relative Humidity [%] !TimeStep
8,1,Environment,Site Wind Speed [m/s] !TimeStep
9,1,Environment,Site Wind Direction [deg] !TimeStep
10,1,Environment,Site Outdoor Air Density [kg/m3] !TimeStep
11,1,Environment,Site Rain Status [] !TimeStep
228,1,BLOCK1:ZONE4,Zone Mean Air Temperature [C] !TimeStep,ON
229,1,BLOCK1:ZONE3,Zone Mean Air Temperature [C] !TimeStep,ON
230,1,BLOCK1:ZONE7,Zone Mean Air Temperature [C] !TimeStep,ON
231,1,BLOCK1:ZONE6,Zone Mean Air Temperature [C] !TimeStep,ON
232,1,BLOCK1:ZONE5,Zone Mean Air Temperature [C] !TimeStep,ON
233,1,BLOCK1:ZONE1,Zone Mean Air Temperature [C] !TimeStep,ON
234,1,BLOCK1:ZONE2,Zone Mean Air Temperature [C] !TimeStep,ON
235,1,BLOCK6:ZONE1,Zone Mean Air Temperature [C] !TimeStep,ON
721,1,PEOPLE BLOCK1:ZONE4,Zone Thermal Comfort Fanger Model PMV [] !TimeStep,ON
722,1,PEOPLE BLOCK1:ZONE3,Zone Thermal Comfort Fanger Model PMV [] !TimeStep,ON
723,1,PEOPLE BLOCK1:ZONE7,Zone Thermal Comfort Fanger Model PMV [] !TimeStep,ON
724,1,PEOPLE BLOCK1:ZONE6,Zone Thermal Comfort Fanger Model PMV [] !TimeStep,ON
725,1,PEOPLE BLOCK1:ZONE5,Zone Thermal Comfort Fanger Model PMV [] !TimeStep,ON
726,1,PEOPLE BLOCK1:ZONE1,Zone Thermal Comfort Fanger Model PMV [] !TimeStep,ON
727,1,PEOPLE BLOCK1:ZONE2,Zone Thermal Comfort Fanger Model PMV [] !TimeStep,ON
728,1,PEOPLE BLOCK6:ZONE1,Zone Thermal Comfort Fanger Model PMV [] !TimeStep,ON
End of Data Dictionary
1,SANTA MARIA, -31.41, -52.70,  -3.00, 464.00
2,1, 1, 1, 1, 1, 0.00,60.00,Sunday
6,16.8
7,91.0
8,5.4
9,123.0
10,1.1359486530452514
228,17.177996271480717
229,19.520657311482315
230,17.75954933418757
231,19.499296868393903
232,18.666773752768074
233,16.988976946671018
234,17.6725750033194
235,18.352289161954198
721,-1.7993950579474943
722,-4.724101807064606
723,-1.5875862984004697
724,-4.657582991906697
725,-1.1656474034731848
726,-1.4576259562615453
727,-1.4962527794817245
728,-1.2038861713575496
11,0.0
2,1, 1, 1, 1, 2, 0.00,60.00,Sunday
6,16.5
7,92.0
8,4.6
9,135.0
10,1.1369342048591405
228,19.068883108268734
229,19.403072166993224
230,18.50671649911882
231,21.6377048040322
232,19.42854355583603
233,17.70674426050797
234,20.07381704110587
235,18.623576928568274
721,-2.553047748097216
722,-4.924402888619706
723,-2.8339018304946226
724,-4.888569304197433
725,-2.0218081973831909
726,-2.4395133405541475
727,-2.303788155998079
728,-2.186232240324158
11,0.0
2,1, 1, 1, 1, 3, 0.00,60.00,Sunday
6,16.6
7,92.0
8,4.6
9,143.0
10,1.1365295026141374
228,19.02323412972954
229,22.06876446400651
230,18.008725151157795
231,19.857641087251144
232,21.15931153187397
233,17.691644487796446
234,20.56265369754428
235,18.123026427152877
721,-2.2210259417119406
722,-4.971752919341098
723,-2.7113533801437446
724,-4.257994359319169
725,-1.9119650600443595
726,-2.3486402580499194
727,-1.8556901362987788
728,-2.171057872725727
11,0.0
2,1, 1, 1, 1, 4, 0.00,60.00,Sunday
6,16.5
7,94.0
8,3.1
9,152.0
10,1.1372042989547578
228,18.457564683789653
229,21.500808880313519
230,18.46366772042764
231,20.621322253407486
232,19.223505318095986
233,17.179191111681275
234,20.233997382942943
235,18.51231434953317
721,-2.2431062551304654
722,-4.186858622172294
723,-2.85755613238837
724,-4.788908785025228
725,-1.6006722886970318
726,-2.381195686141674
727,-1.7691887261672388
728,-2.3126202594481399
11,0.0
2,1, 1, 1, 1, 5, 0.00,60.00,Sunday
6,16.3
7,94.0
8,4.8
9,144.0
10,1.137777485189455
228,18.096837143826464
229,22.036936537351715
230,18.00618130556538
231,20.58433699502917
232,18.797929218755827
233,17.25031584189258
234,19.06428283527981
235,18.09154444637679
721,-2.3621452644107836
722,-4.343480968755297
723,-2.7842486943713808
724,-4.567367174599205
725,-1.9991288719581047
726,-2.5077016908721587
727,-1.839957824734692
728,-2.257565999823442
11,0.0
2,1, 1, 1, 1, 6, 0.00,60.00,Sunday
6,16.4
7,94.0
8,4.7
9,146.0
10,1.1376115044377353
228,17.537099236126076
229,20.830851941870969
230,18.311126815070069
231,19.989753579853983
232,19.036854722614164
233,16.821549842858635
234,19.186150361750035
235,18.249449609831197
721,-2.4547105092755499
722,-4.1936389515399139
723,-2.923289437673969
724,-4.593793895949848
725,-2.1174710606173838
726,-2.5290321917806968
727,-2.0886375038069717
728,-2.3729826896740939
11,0.0
2,1, 1, 1, 1, 7, 0.00,60.00,Sunday
6,17.2
7,93.0
8,6.8
9,153.0
10,1.1340959510640024
228,19.382972777183374
229,21.612349689568437
230,18.028251625554739
231,21.98428123642485
232,18.928387975447387
233,17.50932843209139
234,18.86762696379038
235,18.399035021506959
721,-2.5743746546031565
722,-4.54726508609689
723,-2.8719121638082538
724,-4.775513556703571
725,-2.062712965402927
726,-2.627393509003315
727,-2.0842766677162598
728,-2.342944049115611
11,0.0
2,1, 1, 1, 1, 8, 0.00,60.00,Sunday
6,18.2
7,84.0
8,7.7
9,140.0
10,1.1316304978873615
228,18.634448655749364
229,21.15284745493371
230,18.66663887506974
231,22.677542374635864
232,19.22219632746314
233,18.38955766608905
234,20.04878014524171
235,18.607288139056267
721,-2.2004738004117536
722,-4.306359605954649
723,-2.920147539191657
724,-4.175321055236515
725,-2.0152959985091587
726,-2.463634492157575
727,-2.1364443926092004
728,-2.273644401562244
11,0.0
2,1, 1, 1, 1, 9, 0.00,60.00,Sunday
6,19.4
7,75.0
8,7.9
9,144.0
10,1.128250990973346
228,19.541836488529403
229,21.101863762819755
230,19.761803253652539
231,22.11966297692077
232,21.413335519293839
233,19.524159138577447
234,20.508970888345194
235,19.68572291919321
721,-2.3212747355824456
722,-4.44352236194341
723,-2.7721715282397967
724,-3.9654261514472517
725,-1.8911975385383147
726,-2.287807503448694
727,-1.9111005823962153
728,-2.1807632745437419
11,0.0
2,1, 1, 1, 1,10, 0.00,60.00,Sunday
6,21.6
7,67.0
8,8.7
9,133.0
10,1.1193658090518289
228,21.341910531505765
229,21.95971687039475
230,21.58378776756685
231,22.24890753169067
232,21.81327399950511
233,21.4903376070468
234,21.592805926768628
235,21.40063730602512
721,-2.106830472317457
722,-4.473458521646592
723,-2.4910104018578256
724,-4.1336825179245839
725,-1.3654730147643422
726,-2.0405985774558177
727,-1.8068145992159588
728,-1.882300559062651
11,0.0
2,1, 1, 1, 1,11, 0.00,60.00,Sunday
6,21.2
7,67.0
8,8.9
9,126.0
10,1.1216193279002236
228,21.137476409238105
229,21.871978107417989
230,21.450025874932608
231,21.944292339477778
232,22.33951785357632
233,21.206525751296188
234,21.723263685702919
235,21.571117034951589
721,-1.6927630131264769
722,-4.205631005587012
723,-2.026191082080514
724,-4.083553927557727
725,-1.2265695222991556
726,-1.616449672236536
727,-1.5696771757814823
728,-1.4291834083507869
11,0.0
2,1, 1, 1, 1,12, 0.00,60.00,Sunday
6,22.0
7,59.0
8,9.1
9,127.0
10,1.1198415694503799
228,21.77065329360175
229,22.675962155222668
230,22.16401945894049
231,23.011467153182779
232,22.827393301993774
233,21.980636297082414
234,22.53302300404769
235,22.13209629809246
721,-1.6924108844510589
722,-4.224278438906047
723,-2.009173852914976
724,-4.162740667140466
725,-1.0416738370677188
726,-1.6402910559622222
727,-1.5273916780684028
728,-1.3096199824046522
11,0.0
2,1, 1, 1, 1,13, 0.00,60.00,Sunday
6,23.9
7,54.0
8,8.6
9,116.0
10,1.1113661725305675
228,23.529545270004893
229,23.993500284130279
230,23.9087072138428
231,24.04356150998281
232,24.031689951980178
233,23.245326802762535
234,24.258203507523008
235,23.823475672550875
721,-1.5594205209026285
722,-4.004022529794601
723,-1.848118471074446
724,-3.8588436009761355
725,-0.8815826016064507
726,-1.4890796261449797
727,-1.369447886960369
728,-1.1495311024263362
11,0.0
2,1, 1, 1, 1,14, 0.00,60.00,Sunday
6,21.0
7,66.0
8,9.0
9,113.0
10,1.1220914658639743
228,21.239433431651503
229,22.6817676323431
230,21.89245613320966
231,22.812859821365519
232,22.64574692786264
233,21.28255078424238
234,22.417797491006338
235,22.58995953072939
721,-1.1663647539585068
722,-3.5909265935734244
723,-1.405376340399851
724,-3.5329685716975725
725,-0.6373049003999873
726,-1.2058706745129162
727,-0.9885138043874555
728,-0.7346712834797242
11,0.0
2,1, 1, 1, 1,15, 0.00,60.00,Sunday
6,20.4
7,66.0
8,8.3
9,115.0
10,1.1252109108450977
228,20.987927442185378
229,22.001768781728509
230,21.10750335937471
231,22.203687114676929
232,23.36955826962164
233,21.34402890882145
234,21.503502102943089
235,21.386010162577798
721,-1.564764471045746
722,-3.9480235532554839
723,-1.8318068740814058
724,-3.867117655229141
725,-0.9122111057957023
726,-1.556596007324745
727,-1.3247475447127959
728,-0.9866047954385792
11,0.0
2,1, 1, 1, 1,16, 0.00,60.00,Sunday
6,20.7
7,67.0
8,9.1
9,121.0
10,1.1230664363386743
228,21.255320183258058
229,21.722487268248924
230,21.256616050368235
231,21.762649615384885
232,21.81728313071852
233,21.069209988042148
234,21.33846830687014
235,21.229310436284899
721,-1.6230721998491258
722,-4.1454288421711269
723,-2.0472789067619385
724,-4.0435320547292419
725,-0.8178198251513019
726,-1.5645261153721939
727,-1.5127759792835758
728,-1.2843967589098322
11,0.0
2,1, 1, 1, 1,17, 0.00,60.00,Sunday
6,18.2
7,82.0
8,8.7
9,122.0
10,1.131652122282624
228,18.862703016654249
229,21.012725359654824
230,19.035449236841335
231,21.2780853825117
232,20.35564478455749
233,18.506709016580389
234,20.389377924368035
235,19.601972392334586
721,-1.5722062388994807
722,-4.221154138374805
723,-2.03600003965062
724,-4.171275377013706
725,-1.1903850991290422
726,-1.6274539414623986
727,-1.5413568596194949
728,-1.3712901331496768
11,0.0
2,1, 1, 1, 1,18, 0.00,60.00,Sunday
6,18.8
7,74.0
8,8.9
9,129.0
10,1.1303761914746822
228,20.567699060318114
229,21.142062790595998
230,20.1812953872653
231,21.743118254723244
232,21.24146107004474
233,19.33238800114312
234,20.461230108574538
235,20.307051746644118
721,-2.0385851048671479
722,-4.408362061596944
723,-2.5493734079568259
724,-4.29648129982856
725,-1.5014383390961262
726,-2.129989913259243
727,-1.719405608554982
728,-1.7705340709994129
11,0.0
2,1, 1, 1, 1,19, 0.00,60.00,Sunday
6,17.6
7,77.0
8,7.5
9,118.0
10,1.1365542858182583
228,21.020858499645536
229,20.48263370672664
230,19.17154511275671
231,21.519757301322998
232,20.153244340529136
233,18.575578520770816
234,20.955601488875695
235,19.402515740349828
721,-1.765829652508855
722,-4.389100496163095
723,-2.3401253529555405
724,-4.176146499263949
725,-1.4142406199767078
726,-2.0369765371346935
727,-1.7380209285616033
728,-1.701444302348561
11,0.0
2,1, 1, 1, 1,20, 0.00,60.00,Sunday
6,16.7
7,80.0
8,8.0
9,122.0
10,1.140429905989436
228,17.47698918143792
229,20.465392652485265
230,18.516764716809424
231,20.017016090718625
232,19.70932038109147
233,17.676776722636367
234,18.86449494530031
235,18.47026818541108
721,-1.7244466440863989
722,-4.629884042555507
723,-2.619331245711954
724,-4.2768562216342309
725,-1.705894250238858
726,-2.229098997320337
727,-1.676102556455165
728,-1.96449112684287
11,0.0
2,1, 1, 1, 1,21, 0.00,60.00,Sunday
6,16.2
7,79.0
8,7.9
9,119.0
10,1.1435576207758496
228,18.820769607104077
229,20.88754806535446
230,18.047852879966379
231,21.63548464649837
232,19.014216839058798
233,17.097880049343563
234,18.987706599359478
235,18.276382416935538
721,-2.467337888683189
722,-4.657793289692752
723,-2.814680040593455
724,-4.758753440478335
725,-1.854173951170613
726,-2.4462890765952118
727,-2.1207175160051348
728,-2.230091836197799
11,0.0
2,1, 1, 1, 1,22, 0.00,60.00,Sunday
6,15.9
7,79.0
8,7.2
9,116.0
10,1.145439033722447
228,16.85506361731125
229,20.460716756238015
230,17.30969952862624
231,19.32355227543794
232,18.791089644183218
233,16.404928147825897
234,18.939236590274409
235,18.034825660168619
721,-2.269869827112939
722,-4.554759034517204
723,-2.975113024088293
724,-4.301628283363892
725,-2.049573905026372
726,-2.6130684554588297
727,-2.1343731887753116
728,-2.3376741393503526
11,0.0
2,1, 1, 1, 1,23, 0.00,60.00,Sunday
6,15.8
7,83.0
8,6.1
9,112.0
10,1.1451998362429703
228,16.823261613520829
229,19.660642391740987
230,17.66242593688309
231,20.038068398049839
232,19.369819712654917
233,16.972507512544874
234,17.92030980572691
235,17.98906399534275
721,-2.7002431842215399
722,-4.713711888092515
723,-3.1859953582763249
724,-5.030460908253982
725,-2.146705122229605
726,-2.7951870438012365
727,-2.1819052428011318
728,-2.439377968134422
11,0.0
2,1, 1, 1, 1,24, 0.00,60.00,Sunday
6,15.6
7,85.0
8,6.1
9,115.0
10,1.1455528146863357
228,16.815935803490505
229,20.399647659394824
230,18.241525906884517
231,20.551222480130915
232,18.970515743236548
233,16.288855624052855
234,18.39286219421992
235,17.901815166090996
721,-2.7348703165393966
722,-4.96270941381334
723,-3.1248593789031497
724,-4.8322320636573379
725,-2.0589269764599784
726,-2.700623549596466
727,-2.3966876963763625
728,-2.4721090935897558
11,0.0
2,2, 1, 2, 1, 1, 0.00,60.00,Monday
6,15.6
7,86.0
8,5.7
9,117.0
10,1.1447355857911915
228,18.201394938166179
229,19.506386798710535
230,17.735997514334053
231,19.018108714968066
232,18.839560231631059
233,15.94245852164083
234,19.478545846295157
235,18.03227573663898
721,-2.7687113058879806
722,-4.7518004607988308
723,-3.0216986094959967
724,-4.684847975210117
725,-2.157300602738747
726,-2.8592059676296648
727,-2.3226557173595467
728,-2.5085240282417677
11,0.0
2,2, 1, 2, 1, 2, 0.00,60.00,Monday
6,15.3
7,86.0
8,5.4
9,117.0
10,1.1456732982421088
228,17.35491742008302
229,20.767637892689007
230,17.998658918879053
231,19.690724163690999
232,20.443485302159517
233,16.275381998229606
234,18.44105988138622
235,18.60549425872196
721,-2.5237999334511356
722,-5.026505793102286
723,-3.1489120181823204
724,-5.153805396165729
725,-2.2130216523230059
726,-2.954811097204457
727,-2.1253100835979485
728,-2.5055034146907895
11,0.0
2,2, 1, 2, 1, 3, 0.00,60.00,Monday
6,15.1
7,86.0
8,5.0
9,125.0
10,1.1463365356557165
228,17.744950245221589
229,20.105152607158954
230,17.69087920312696
231,19.9403914967457
232,18.76034800974143
233,16.000526591773754
234,18.211065161339226
235,18.00781053483696
721,-2.7163330073881335
722,-4.6739971690512569
723,-3.1102061628335857
724,-4.984520527897952
725,-1.9265698514304255
726,-2.9235008748607655
727,-2.3465562954346388
728,-2.4077899057001934
11,0.0
2,2, 1, 2, 1, 4, 0.00,60.00,Monday
6,15.1
7,87.0
8,5.7
9,129.0
10,1.1457664171164348
228,18.493873998014807
229,19.897088718228085
230,16.962033580123177
231,20.64023944457608
232,19.497164127164078
233,15.949632528254126
234,17.80601005393325
235,17.901256342007327
721,-2.6695915330005679
722,-4.892780082739577
723,-3.2095051926531599
724,-4.934283889402798
725,-2.286138719405615
726,-3.005574873007407
727,-2.418678591001008
728,-2.5541652363319136
11,0.0
2,2, 1, 2, 1, 5, 0.00,60.00,Monday
6,15.1
7,86.0
8,5.0
9,129.0
10,1.1463365356557165
228,16.42582371574041
229,19.113533856059939
230,17.423525823682188
231,20.380257955336995
232,18.137448618391223
233,15.684785710996957
234,18.00154524802562
235,17.923599564991848
721,-2.5415720812164497
722,-4.971818352281019
723,-3.3904596980890084
724,-4.740608073625313
725,-2.1708140882915947
726,-3.035371597149914
727,-2.5180778097233715
728,-2.6014686908162405
11,0.0
2,2, 1, 2, 1, 6, 0.00,60.00,Monday
6,15.0
7,85.0
8,6.6
9,128.0
10,1.1470551283110878
228,17.896496197445474
229,19.369080697235384
230,16.433850570509806
231,20.180141840264775
232,17.540395120404093
233,15.274181204096108
234,17.239232936194193
235,17.611193470376198
721,-2.9644175090512965
722,-5.22905556079174
723,-3.31947227342347
724,-4.830540333858364
725,-2.4618081620216589
726,-3.1162990377836556
727,-2.501865917921938
728,-2.614821355415282
11,0.0
2,2, 1, 2, 1, 7, 0.00,60.00,Monday
6,15.6
7,83.0
8,6.0
9,124.0
10,1.1447738902722818
228,16.21611851813882
229,18.405547454847235
230,16.92658998641383
231,18.09344231625099
232,17.809373994871945
233,16.214199254622238
234,18.058655203598595
235,17.587249503042643
721,-2.705324179931617
722,-5.185267393366585
723,-3.56914107151295
724,-4.91687548956527
725,-2.594619901677092
726,-3.220730579449551
727,-2.672262763099682
728,-2.6989419819970608
11,0.0
2,2, 1, 2, 1, 8, 0.00,60.00,Monday
6,16.5
7,78.0
8,6.6
9,118.0
10,1.1416597253942587
228,17.630564751753608
229,21.036995447487916
230,18.00291589806867
231,19.238877166569759
232,18.726478968107427
233,17.025865632899977
234,18.25204204634066
235,17.989217811298194
721,-3.0316307350479
722,-5.491283348914555
723,-3.4692150210926369
724,-5.562822944101544
725,-2.513458081419021
726,-3.0334109003998694
727,-2.5222296697127519
728,-2.6903853336282288
11,0.0
2,2, 1, 2, 1, 9, 0.00,60.00,Monday
6,17.5
7,73.0
8,8.5
9,121.0
10,1.1380214191527869
228,17.722798486910635
229,18.936245761867999
230,18.049665224910745
231,19.13793645538967
232,18.61625655618802
233,17.64663462332428
234,18.1272998066621
235,18.222693203786358
721,-2.7505629680454768
722,-4.720488451739542
723,-3.215801115360525
724,-5.23953159481434
725,-2.2670936019322824
726,-2.8524612027024704
727,-2.4831816785781695
728,-2.5649495297433555
11,0.0
2,2, 1, 2, 1,10, 0.00,60.00,Monday
6,18.5
7,69.0
8,7.8
9,115.0
10,1.1340046135858649
228,18.597993520876689
229,19.734924942625278
230,18.863597699106167
231,20.11449541905952
232,19.45802853005724
233,18.561423754606797
234,18.949467566277244
235,18.892059898033584
721,-2.705723687072763
722,-5.349899648450157
723,-3.1793637891997408
724,-5.281779282758124
725,-2.222540992347516
726,-2.7050385396313656
727,-2.5065490985308709
728,-2.464714479217847
11,0.0
2,2, 1, 2, 1,11, 0.00,60.00,Monday
6,19.8
7,57.0
8,7.5
9,103.0
10,1.1305553742158419
228,19.709138218097786
229,20.34143623179131
230,19.932275063563695
231,20.507033454300307
232,20.39473764189041
233,19.741319397240934
234,19.95984640909053
235,19.8931070832785
721,-2.4888649051828799
722,-5.108383405565786
723,-2.9358203811151695
724,-4.980565310548909
725,-1.9543135653244166
726,-2.479875422347987
727,-2.330560881829811
728,-2.2324527873764388
11,0.0
2,2, 1, 2, 1,12, 0.00,60.00,Monday
6,20.5
7,56.0
8,7.3
9,119.0
10,1.1270991003695217
228,20.260701086550826
229,21.121865439412006
230,20.75030108063793
231,21.263692430386138
232,21.138758111453464
233,20.414994511961184
234,20.92052438335583
235,20.85352975913145
721,-2.263229827501543
722,-4.963632545075522
723,-2.6881402120606658
724,-4.89379515278628
725,-1.7159712489741157
726,-2.247439575901932
727,-2.1412630786047646
728,-1.9748818875468207
11,0.0
2,2, 1, 2, 1,13, 0.00,60.00,Monday
6,20.5
7,54.0
8,8.4
9,121.0
10,1.1268409606251726
228,20.40952843520348
229,21.281610606845264
230,20.841922759149555
231,21.324400555602318
232,21.63404048422813
233,20.451213116666439
234,21.185988726511178
235,21.02667363942687
721,-2.1017328386415827
722,-4.729275316691032
723,-2.452281785492161
724,-4.665539764194494
725,-1.5035141716613843
726,-2.0766048942878516
727,-1.9272138534023938
728,-1.6993014300747629
11,0.0
2,2, 1, 2, 1,14, 0.00,60.00,Monday
6,21.6
7,56.0
8,8.4
9,121.0
10,1.1209486760759429
228,21.371587791287216
229,22.28108607845886
230,21.69955204398367
231,22.366609087250177
232,22.343613035631078
233,21.553228139630045
234,22.327056065712495
235,21.723158914247667
721,-2.0383614294005509
722,-4.669935434822988
723,-2.403672671238703
724,-4.631110715785642
725,-1.36200660298742
726,-2.0460721323686914
727,-1.8557986679040735
728,-1.6117964362054174
11,0.0
2,2, 1, 2, 1,15, 0.00,60.00,Monday
6,21.3
7,49.0
8,8.9
9,111.0
10,1.123554432362637
228,21.155177315025957
229,22.299029679342199
230,21.762142690495187
231,22.370449885413238
232,22.23659544115254
233,21.207216462882433
234,22.015488808253989
235,21.838936959602966
721,-1.7800497146244397
722,-4.330438013654978
723,-2.160248711828818
724,-4.279155900858013
725,-1.1928118822347834
726,-1.7744115189461256
727,-1.5820493137401848
728,-1.4144943973473244
11,0.0
2,2, 1, 2, 1,16, 0.00,60.00,Monday
6,19.5
7,58.0
8,8.6
9,106.0
10,1.1293525591531353
228,19.6976288845199
229,21.02448497911796
230,20.98293357041188
231,21.18566327077977
232,21.818726017215338
233,20.609840758231635
234,20.44013991128448
235,21.605775292959053
721,-1.846601149746401
722,-4.335721433356639
723,-2.1842942770134439
724,-4.282830817164953
725,-1.2727126337368636
726,-1.883598411503635
727,-1.6576688666659044
728,-1.4194698260742256
11,0.0
2,2, 1, 2, 1,17, 0.00,60.00,Monday
6,19.4
7,51.0
8,7.7
9,102.0
10,1.1317143145052589
228,20.26007366452171
229,20.900255807288283
230,20.091873065068719
231,20.628699266226535
232,21.171662054784485
233,19.800042282477585
234,20.162824620020534
235,20.570285048187839
721,-2.10239710331739
722,-4.722925859302527
723,-2.3744100935307856
724,-4.650215602047928
725,-1.401148583738477
726,-1.986421442234576
727,-1.9594565100461719
728,-1.5236145748672392
11,0.0
2,2, 1, 2, 1,18, 0.00,60.00,Monday
6,18.7
7,62.0
8,8.1
9,103.0
10,1.1326599905376258
228,18.94799712557508
229,20.32610595019134
230,19.77515579566486
231,20.99637194545504
232,20.56157738330145
233,18.943570902473974
234,20.68688641168311
235,19.728466640631259
721,-2.0407411076008015
722,-4.7862310963297569
723,-2.610109737468618
724,-4.842436196911186
725,-1.5915406475631787
726,-2.184738700025193
727,-2.04277538094705
728,-1.7950334894063088
11,0.0
2,2, 1, 2, 1,19, 0.00,60.00,Monday
6,17.9
7,66.0
8,6.0
9,107.0
10,1.135575029975802
228,19.035414106150179
229,20.5738847630333
230,19.133678255721369
231,21.065501641638144
232,20.616061513477307
233,18.278228810114919
234,19.868062611606047
235,19.5802545244996
721,-2.2719719196322289
722,-4.931259471197254
723,-2.671989008533295
724,-4.716139831291062
725,-1.7663695540222289
726,-2.3324681071514306
727,-1.932023555293062
728,-2.006902103549619
11,0.0
2,2, 1, 2, 1,20, 0.00,60.00,Monday
6,17.3
7,70.0
8,6.6
9,111.0
10,1.1375765768651048
228,17.946402859339558
229,20.388936456509659
230,18.487738794988617
231,21.937823396706045
232,19.55732381879654
233,17.88879615948861
234,19.301674963329604
235,18.685880994699884
721,-2.2837606163509438
722,-4.8450518722695359
723,-2.819037856467918
724,-4.672115467512465
725,-1.786582192637018
726,-2.478027083916559
727,-2.0836782606799457
728,-2.075471655579604
11,0.0
2,2, 1, 2, 1,21, 0.00,60.00,Monday
6,16.6
7,72.0
8,5.5
9,119.0
10,1.140712714559372
228,17.749311763968259
229,20.76999029729643
230,18.5137281173031
231,19.94422975532562
232,19.411559214455033
233,18.33681298154919
234,18.725035296922394
235,19.159428406089483
721,-2.5178046556545259
722,-4.886970583349529
723,-2.986190525032627
724,-4.403753151282117
725,-2.0261684942472315
726,-2.5689593900216565
727,-2.195677119912613
728,-2.3013963582559775
11,0.0
2,2, 1, 2, 1,22, 0.00,60.00,Monday
6,16.2
7,73.0
8,5.9
9,113.0
10,1.1423595563867464
228,17.092542074550456
229,20.37261518298577
230,17.614575694086026
231,20.017419523476943
232,18.99678196244757
233,16.731373561861515
234,18.861075085762054
235,18.101268346677125
721,-2.5964594742735347
722,-4.778628178660296
723,-3.0006755680494137
724,-4.993282491522286
725,-2.0936941431954589
726,-2.5041372550500657
727,-2.3245811033029017
728,-2.2413009301258888
11,0.0
2,2, 1, 2, 1,23, 0.00,60.00,Monday
6,16.0
7,76.0
8,5.0
9,113.0
10,1.1425774087204457
228,16.992300378547669
229,19.35121234062234
230,17.527462888870497
231,20.374615456316037
232,18.573306072983774
233,16.89949336566073
234,18.90397138394076
235,18.039249356892666
721,-2.7615448858143547
722,-4.908283373173128
723,-3.2346830352788196
724,-4.991282132823444
725,-2.2140834918288689
726,-2.8445344559771619
727,-2.3201118746695776
728,-2.499976297026826
11,0.0
2,2, 1, 2, 1,24, 0.00,60.00,Monday
6,15.9
7,78.0
8,4.4
9,116.0
10,1.1419199787046302
228,16.892197260038093
229,21.29496267669319
230,17.792310259076304
231,19.419281580657637
232,19.311404066338655
233,16.25498868698074
234,18.775406930973394
235,17.954703182582077
721,-2.8041786527259364
722,-5.214320931331042
723,-3.273593077104938
724,-4.884944224124164
725,-2.323353010117138
726,-2.828512108795069
727,-2.321324371530972
728,-2.542441581884934
11,0.0
2,3, 1, 3, 1, 1, 0.00,60.00,Tuesday
6,16.0
7,82.0
8,3.4
9,121.0
10,1.1400576313492628
228,18.846963754476
229,18.758845439435079
230,17.810340303418227
231,21.155494819767385
232,18.824167261110018
233,16.701737800734845
234,19.690877464036224
235,18.050981396031835
721,-2.844425358583984
722,-4.641794985828364
723,-3.2267501319695377
724,-5.172482843964756
725,-2.194431542137375
726,-2.97075944424712
727,-2.351382661246177
728,-2.573372003996171
11,0.0
2,3, 1, 3, 1, 2, 0.00,60.00,Tuesday
6,14.6
7,98.0
8,6.9
9,119.0
10,1.1433322065183125
228,17.307922441110404
229,17.191514869074948
230,16.262091057539665
231,18.110845225853454
232,18.711992357786028
233,14.813483543518507
234,17.940184237624256
235,17.241271472356414
721,-2.4785625787628748
722,-5.3782298571972959
723,-3.2235798292236055
724,-4.647642914947397
725,-2.3146582073155765
726,-2.8881757603698849
727,-2.1712482919770448
728,-2.5643382665322664
11,0.0
2,3, 1, 3, 1, 3, 0.00,60.00,Tuesday
6,14.4
7,98.0
8,4.6
9,135.0
10,1.1441386545157546
228,16.27197875538623
229,19.204499591742555
230,17.97245338023952
231,21.008269260133078
232,18.262581459107954
233,16.898496628128503
234,17.9846087442448
235,17.76644505063497
721,-2.7582428763615298
722,-5.830059147552404
723,-3.566180038756273
724,-5.5223559435783688
725,-2.34749744682765
726,-3.2534732601805969
727,-2.4974935309955037
728,-2.747670743506589
11,0.0
2,3, 1, 3, 1, 4, 0.00,60.00,Tuesday
6,14.7
7,99.0
8,5.0
9,132.0
10,1.1419995586916668
228,15.955571591005024
229,18.147710108521247
230,16.28296618925868
231,18.874615658113073
232,17.053506295544385
233,15.142159773365848
234,17.99293510073369
235,17.10186734123177
721,-2.9896842587688514
722,-5.2629924085030439
723,-3.208054556722282
724,-4.684070946864462
725,-2.4405033134765539
726,-2.871600347239838
727,-2.503724411285811
728,-2.645448984586654
11,0.0
2,3, 1, 3, 1, 5, 0.00,60.00,Tuesday
6,14.7
7,99.0
8,5.2
9,129.0
10,1.1418785122939764
228,16.41716842957901
229,19.974741509705255
230,16.861433310025789
231,19.980213341914
232,17.543218860713627
233,15.635493602133007
234,17.362509372120976
235,17.502315384005987
721,-3.0690263786107816
722,-5.5793877077433919
723,-3.5952978142932157
724,-5.316097496279509
725,-2.6984520391736908
726,-3.2225045339776106
727,-2.511596385389909
728,-2.8016886981066286
11,0.0
2,3, 1, 3, 1, 6, 0.00,60.00,Tuesday
6,14.0
7,99.0
8,7.1
9,128.0
10,1.1456736916555224
228,14.81783412998563
229,17.86924062183704
230,15.4497847349163
231,21.542059718127996
232,18.40215023422141
233,15.2380605908318
234,16.900743240950118
235,16.644378024293837
721,-3.006235195818652
722,-5.054893949718745
723,-3.48765569469436
724,-5.006007381993314
725,-2.6421600642707956
726,-3.154235669504856
727,-2.649302439869071
728,-2.7323316371095798
11,0.0
2,3, 1, 3, 1, 7, 0.00,60.00,Tuesday
6,13.6
7,99.0
8,5.1
9,130.0
10,1.148616083017274
228,15.308246345577448
229,18.237457782506018
230,16.59518649116004
231,18.057605406138923
232,17.241476816475985
233,14.7854573518602
234,17.194232096193898
235,16.728778641412239
721,-3.3627949492592377
722,-5.728866675343826
723,-3.8550449806845177
724,-4.57334233726214
725,-2.5150190956077087
726,-3.2732569298016744
727,-2.7763651255656276
728,-2.956994474581946
11,0.0
2,3, 1, 3, 1, 8, 0.00,60.00,Tuesday
6,14.1
7,99.0
8,3.8
9,111.0
10,1.1472119665530174
228,15.267585332989956
229,17.783977843512035
230,15.944145010300197
231,18.315310992366
232,17.7661343263283
233,14.474224026881818
234,17.38970476827476
235,16.797243729875445
721,-3.3085759840322574
722,-5.660932144881271
723,-3.634823992737851
724,-5.652447936841642
725,-2.7589521230022004
726,-3.3934478940431358
727,-2.743835258610715
728,-2.9603139234686446
11,0.0
2,3, 1, 3, 1, 9, 0.00,60.00,Tuesday
6,14.7
7,99.0
8,4.7
9,135.0
10,1.1445415330431635
228,15.776447555395926
229,19.80791406417287
230,16.460121854919529
231,18.00651636795289
232,17.344917539862
233,15.002862297779665
234,17.925423869569884
235,17.193678800014735
721,-3.3233154692054835
722,-5.808221032581331
723,-3.7814381528055858
724,-5.593483277256137
725,-2.6573267917917575
726,-3.4614176957914837
727,-2.71281027084103
728,-2.951900352668673
11,0.0
2,3, 1, 3, 1,10, 0.00,60.00,Tuesday
6,14.8
7,99.0
8,3.0
9,123.0
10,1.1440143264673784
228,17.099380034440924
229,18.011585965836415
230,17.09650524590825
231,18.0741946907757
232,17.61002445002628
233,15.768531392796899
234,18.347258446514759
235,17.495514671730406
721,-3.219364798405632
722,-5.207217559865748
723,-3.6577596778309164
724,-5.690014964300659
725,-2.724522924491556
726,-3.35564698179839
727,-2.6021067499473768
728,-2.853949901320469
11,0.0
2,3, 1, 3, 1,11, 0.00,60.00,Tuesday
6,14.9
7,99.0
8,2.4
9,136.0
10,1.1434867491405248
228,16.647420548901658
229,17.9492754572295
230,16.714897248231887
231,19.307693300899304
232,17.869368845075824
233,15.397163186194135
234,18.35349492391088
235,17.641513732097264
721,-2.959790697768856
722,-5.742909689719002
723,-3.5123999974935375
724,-5.687149733834283
725,-2.6520112256165757
726,-3.201567172242322
727,-2.520511378045305
728,-2.768621576140067
11,0.0
2,3, 1, 3, 1,12, 0.00,60.00,Tuesday
6,15.7
7,98.0
8,3.9
9,127.0
10,1.1395882112224126
228,16.511583992251049
229,18.290773768393455
230,16.8755479884843
231,19.21755217080598
232,17.58895335584326
233,16.004113171658724
234,18.253626297921856
235,17.7255322497707
721,-3.0274010474689354
722,-5.772855101906582
723,-3.579380827826575
724,-5.322482041306418
725,-2.540650998023916
726,-3.2532152674746377
727,-2.5111742955461766
728,-2.698191915971062
11,0.0
2,3, 1, 3, 1,13, 0.00,60.00,Tuesday
6,16.3
7,91.0
8,3.5
9,82.0
10,1.1372431040666014
228,16.910510670163604
229,18.76410119447758
230,17.938225329335507
231,19.75692088674385
232,18.51551801961476
233,17.20878949268063
234,19.068866686409856