Program Version,EnergyPlus, Version 8.7.0-78a111df4a, YMD=2018.01.27 23:30
1,5,Environment Title[],Latitude[deg],Longitude[deg],Time Zone[],Elevation[m]
2,6,Day of Simulation[],Month[],Day of Month[],DST Indicator[1=yes 0=no],Hour[],StartMinute[],EndMinute[],DayType
3,3,Cumulative Day of Simulation[],Month[],Day of Month[],DST Indicator[1=yes 0=no],DayType  ! When Daily Report Variables Requested
4,2,Cumulative Days of Simulation[],Month[]  ! When Monthly Report Variables Requested
5,1,Cumulative Days of Simulation[] ! When Run Period Report Variables Requested
6,1,Environment,Site Outdoor Air Drybulb Temperature [C] !TimeStep
7,1,Environment,Site Outdoor Air Relative Humidity [%] !TimeStep
8,1,Environment,Site Wind Speed [m/s] !TimeStep
9,1,Environment,Site Wind Direction [deg] !TimeStep
10,1,Environment,Site Outdoor Air Density [kg/m3] !TimeStep
11,1,Environment,Site Rain Status [] !TimeStep
228,1,BLOCK1:ZONE4,Zone Mean Air Temperature [C] !TimeStep,ON
229,1,BLOCK1:ZONE3,Zone Mean Air Temperature [C] !TimeStep,ON
230,1,BLOCK1:ZONE7,Zone Mean Air Temperature [C] !TimeStep,ON
231,1,BLOCK1:ZONE6,Zone Mean Air Temperature [C] !TimeStep,ON
232,1,BLOCK1:ZONE5,Zone Mean Air Temperature [C] !TimeStep,ON
233,1,BLOCK1:ZONE1,Zone Mean Air Temperature [C] !TimeStep,ON
234,1,BLOCK1:ZONE2,Zone Mean Air Temperature [C] !TimeStep,ON
235,1,BLOCK6:ZONE1,Zone Mean Air Temperature [C] !TimeStep,ON
721,1,PEOPLE BLOCK1:ZONE4,Zone Thermal Comfort Fanger Model PMV [] !TimeStep,ON
722,1,PEOPLE BLOCK1:ZONE3,Zone Thermal Comfort Fanger Model PMV [] !TimeStep,ON
723,1,PEOPLE BLOCK1:ZONE7,Zone Thermal Comfort Fanger Model PMV [] !TimeStep,ON
724,1,PEOPLE BLOCK1:ZONE6,Zone Thermal Comfort Fanger Model PMV [] !TimeStep,ON
725,1,PEOPLE BLOCK1:ZONE5,Zone Thermal Comfort Fanger Model PMV [] !TimeStep,ON
726,1,PEOPLE BLOCK1:ZONE1,Zone Thermal Comfort Fanger Model PMV [] !TimeStep,ON
727,1,PEOPLE BLOCK1:ZONE2,Zone Thermal Comfort Fanger Model PMV [] !TimeStep,ON
728,1,PEOPLE BLOCK6:ZONE1,Zone Thermal Comfort Fanger Model PMV [] !TimeStep,ON
End of Data Dictionary
1,SANTA MARIA, -31.41, -52.70,  -3.00, 464.00
2,1, 1, 1, 1, 1, 0.00,60.00,Sunday
6,16.8
7,91.0
8,5.4
9,123.0
10,1.1359486530452514
228,17.177996271480717
229,19.520657311482315
230,17.75954933418757
231,19.499296868393903
232,18.666773752768074
233,16.988976946671018
234,17.6725750033194
235,18.352289161954198
721,-1.7993950579474943
722,-4.724101807064606
723,-1.5875862984004697
724,-4.657582991906697
725,-1.1656474034731848
726,-1.4576259562615453
727,-1.4962527794817245
728,-1.2038861713575496
11,0.0
2,1, 1, 1, 1, 2, 0.00,60.00,Sunday
6,16.5
7,92.0
8,4.6
9,135.0
10,1.1369342048591405
228,19.012536124799945
229,20.442496756081554
230,18.258498349318687
231,20.265975147808864
232,19.028215091231624
233,18.124052036028748
234,20.331106354020478
235,18.210076107702546
721,-2.553047748097216
722,-4.924402888619706
723,-2.8339018304946226
724,-4.888569304197433
725,-2.0218081973831909
726,-2.4395133405541475
727,-2.303788155998079
728,-2.186232240324158
11,0.0
2,1, 1, 1, 1, 3, 0.00,60.00,Sunday
6,16.6
7,92.0
8,4.6
9,143.0
10,1.1365295026141374
228,18.215077280157297
229,22.703652437822404
230,18.010162026282928
231,21.785495307958219
232,18.80947355294486
233,17.125716884052495
234,19.686558631370504
235,18.052955769016227
721,-2.2311637750677626
722,-4.657209779470219
723,-2.7743337952374129
724,-4.669115025649289
725,-1.9926639238707105
726,-2.264342480673596
727,-1.8038377295008277
728,-2.2635229938725409
11,0.0
2,1, 1, 1, 1, 4, 0.00,60.00,Sunday
6,16.5
7,94.0
8,3.1
9,152.0
10,1.1372042989547578
228,19.525440122652918
229,19.508716314276545
230,19.0472562574842
231,20.72468202785239
232,19.699139430529614
233,17.48441043614975
234,20.35931325832381
235,18.43654339331196
721,-2.3998894950454376
722,-3.991842350215984
723,-2.8672512834845018
724,-4.220214835999438
725,-2.069386969999523
726,-2.492823674088936
727,-1.9391600626869253
728,-2.3344362692305267
11,0.0
2,1, 1, 1, 1, 5, 0.00,60.00,Sunday
6,16.3
7,94.0
8,4.8
9,144.0
10,1.137777485189455
228,19.044132482638259
229,19.402720437549449
230,18.01882406167932
231,19.321019008951418
232,19.162436329940954
233,17.263805695105739
234,19.681604241256339
235,18.471191516771463
721,-2.159325504617609
722,-4.930689468121985
723,-2.65811900342142
724,-4.531772394624033
725,-1.9197380526959576
726,-2.4498913283415857
727,-1.8202886560292766
728,-2.27412882302382
11,0.0
2,1, 1, 1, 1, 6, 0.00,60.00,Sunday
6,16.4
7,94.0
8,4.7
9,146.0
10,1.1376115044377353
228,18.57705493377171
229,20.151385810058394
230,18.00493789930575
231,20.952599724887997
232,18.886774091236938
233,17.370880818844797
234,18.58255033247645
235,18.491886470368408
721,-2.267451479469632
722,-4.991268660724406
723,-2.914521726881843
724,-4.9745696957434479
725,-2.0544868584422346
726,-2.525219742243524
727,-1.9694468731177589
728,-2.295619052611267
11,0.0
2,1, 1, 1, 1, 7, 0.00,60.00,Sunday
6,17.2
7,93.0
8,6.8
9,153.0
10,1.1340959510640024
228,18.287125610802585
229,20.458792791556914
230,18.184959958338938
231,21.93935492433083
232,19.114008789906096
233,17.414766826144129
234,19.85351495213334
235,18.232708405729164
721,-2.367430560878435
722,-4.779997579644528
723,-2.9360181683626589
724,-4.500193543170866
725,-2.0992496169715739
726,-2.5152133701738959
727,-2.1997637137487544
728,-2.2910482872364748
11,0.0
2,1, 1, 1, 1, 8, 0.00,60.00,Sunday
6,18.2
7,84.0
8,7.7
9,140.0
10,1.1316304978873615
228,18.636529222438985
229,21.196332831243575
230,18.526042756296783
231,20.562043733928296
232,19.541086358771439
233,18.409579412524559
234,19.189899944710015
235,18.57949072808339
721,-2.397323517770279
722,-4.665489441267775
723,-2.8881277552857007
724,-4.186057125235017
725,-1.9852251231727467
726,-2.4767196435845975
727,-1.9441494717686927
728,-2.3042054932497599
11,0.0
2,1, 1, 1, 1, 9, 0.00,60.00,Sunday
6,19.4
7,75.0
8,7.9
9,144.0
10,1.128250990973346
228,19.517538679555697
229,21.197712087520338
230,19.674148478125607
231,21.332342285137238
232,20.094960891916807
233,19.46091304150977
234,20.046383044841499
235,19.516021938272766
721,-2.322214957423546
722,-4.457577446826431
723,-2.8072315143368886
724,-4.598672555886424
725,-1.838906237534721
726,-2.280266629874148
727,-2.0783949264318726
728,-2.196793163258948
11,0.0
2,1, 1, 1, 1,10, 0.00,60.00,Sunday
6,21.6
7,67.0
8,8.7
9,133.0
10,1.1193658090518289
228,21.064048368256999
229,21.964463601056996
230,21.522841024406213
231,21.554861713250867
232,21.7282699772528
233,20.994773897400927
234,21.428408625273016
235,21.554897706657508
721,-2.113069179157911
722,-4.470651365223291
723,-2.5143719627132055
724,-4.388682887860999
725,-1.6365358314528674
726,-2.050530841338224
727,-1.8998718496854304
728,-1.9221051417991233
11,0.0
2,1, 1, 1, 1,11, 0.00,60.00,Sunday
6,21.2
7,67.0
8,8.9
9,126.0
10,1.1216193279002236
228,21.096611267780195
229,21.79337358405418
230,21.41388685716755
231,21.90283891531845
232,21.882527252733625
233,21.192258375632833
234,21.622240448225587
235,21.411713666915646
721,-1.7474379975864445
722,-4.228596748087618
723,-2.0420318801949959
724,-4.302301950102218
725,-1.2544201056726725
726,-1.7114540006965975
727,-1.6044594986644603
728,-1.405110057750793
11,0.0
2,1, 1, 1, 1,12, 0.00,60.00,Sunday
6,22.0
7,59.0
8,9.1
9,127.0
10,1.1198415694503799
228,21.84300884866689
229,22.578921141528548
230,22.2072121406424
231,22.613205531310308
232,22.745358147613439
233,21.965391546126307
234,22.552744447158277
235,22.21958735748574
721,-1.702032190262258
722,-4.272026620207146
723,-2.021848563564243
724,-4.19508697417285
725,-1.1404271002804758
726,-1.643598686986423
727,-1.5520026539249843
728,-1.346901675222016
11,0.0
2,1, 1, 1, 1,13, 0.00,60.00,Sunday
6,23.9
7,54.0
8,8.6
9,116.0
10,1.1113661725305675
228,22.870396906770976
229,23.988253766543659
230,23.912742584969629
231,24.05629466268222
232,24.115005933005429
233,23.80849957704762
234,24.29392435620791
235,23.827173932220913
721,-1.5440638930185234
722,-4.057766073105508
723,-1.8390046934999223
724,-4.001864609103019
725,-0.9072511667193408
726,-1.492326108771546
727,-1.3701420322729768
728,-1.1330955011697018
11,0.0
2,1, 1, 1, 1,14, 0.00,60.00,Sunday
6,21.0
7,66.0
8,9.0
9,113.0
10,1.1220914658639743
228,21.26484052991629
229,22.536013193047557
230,22.218052270172814
231,22.61525019066718
232,22.95318563890369
233,21.56681341260034
234,22.148381171043427
235,22.720278228471547
721,-1.298120119029679
722,-3.6155677509739059
723,-1.4056557216744139
724,-3.5486212837996646
725,-0.6300816585696653
726,-1.093311800563377
727,-0.9859573680553592
728,-0.7343680495504181
11,0.0
2,1, 1, 1, 1,15, 0.00,60.00,Sunday
6,20.4
7,66.0
8,8.3
9,115.0
10,1.1252109108450977
228,20.6494226173077
229,21.850208057139804
230,21.324941250908745
231,21.92001572630629
232,22.22364930522101
233,20.557606086279117
234,21.358698567932863
235,21.6992221800555
721,-1.5655792516595158
722,-4.013280122353324
723,-1.764218961007849
724,-3.9434468022717494
725,-0.8605394024299375
726,-1.497800911224779
727,-1.380948158496411
728,-0.9617872979135683
11,0.0
2,1, 1, 1, 1,16, 0.00,60.00,Sunday
6,20.7
7,67.0
8,9.1
9,121.0
10,1.1230664363386743
228,21.49525129125144
229,21.77049218543335
230,21.60965761635545
231,21.86220862904292
232,22.843061287893155
233,20.978734226348604
234,21.329599297413048
235,22.08435545911111
721,-1.6935934371317248
722,-4.2114350924394199
723,-1.9981210060222597
724,-4.145154333083402
725,-1.048391376744401
726,-1.7150689243385773
727,-1.5453409418648335
728,-1.2191292501594844
11,0.0
2,1, 1, 1, 1,17, 0.00,60.00,Sunday
6,18.2
7,82.0
8,8.7
9,122.0
10,1.131652122282624
228,18.72589201375727
229,20.7681559878155
230,19.6216036640709
231,20.93238774899801
232,22.913360453188568
233,19.269832198419765
234,20.3166340347345
235,19.37033351382359
721,-1.5340783828573133
722,-4.228512280644006
723,-1.9456152626490484
724,-4.159406856328646
725,-1.0012711268001149
726,-1.6447475577755646
727,-1.5472777588178844
728,-1.18681023211757
11,0.0
2,1, 1, 1, 1,18, 0.00,60.00,Sunday
6,18.8
7,74.0
8,8.9
9,129.0
10,1.1303761914746822
228,19.78501749750502
229,21.085533774677815
230,19.486119298093798
231,20.959222193600579
232,20.210407930640004
233,18.964467828088109
234,20.185994822631348
235,19.508388670394817
721,-2.069968620549149
722,-4.502387056248062
723,-2.4090819524907736
724,-4.415211617103093
725,-1.003573790091718
726,-1.9777250655197807
727,-1.740389271303084
728,-1.8008095891294945
11,0.0
2,1, 1, 1, 1,19, 0.00,60.00,Sunday
6,17.6
7,77.0
8,7.5
9,118.0
10,1.1365542858182583
228,18.34750880561492
229,20.58136036034549
230,20.009706218612189
231,20.75050424296147
232,20.89277886637412
233,18.4817447220402
234,19.897889106623518
235,20.54371220086577
721,-1.9309797252179859
722,-4.433831530212954
723,-2.502349105402017
724,-4.435638588325543
725,-1.6137254592398232
726,-2.1031126584154919
727,-1.8038302551365584
728,-1.875816973461988
11,0.0
2,1, 1, 1, 1,20, 0.00,60.00,Sunday
6,16.7
7,80.0
8,8.0
9,122.0
10,1.140429905989436
228,17.539299609016987
229,20.73523225922954
230,17.806968597731637
231,19.43015494265928
232,18.86937579325534
233,18.71112191957325
234,19.41595046269296
235,18.236731424302378
721,-2.265897415886399
722,-4.610907048480176
723,-2.411624680618352
724,-4.524462788528907
725,-1.549442827850059
726,-2.246301028112275
727,-1.894995489681277
728,-1.714616401822747
11,0.0
2,1, 1, 1, 1,21, 0.00,60.00,Sunday
6,16.2
7,79.0
8,7.9
9,119.0
10,1.1435576207758496
228,17.603087719219209
229,21.598851586467526
230,19.260013509888894
231,20.489738499087037
232,19.959665932543186
233,17.10604247531279
234,19.11073768599143
235,18.989881634496798
721,-2.4788977494635748
722,-4.590359662809143
723,-2.9690516747930646
724,-4.960464502230573
725,-2.014550658729468
726,-2.2373605687807087
727,-2.0214061218027217
728,-2.2716046723172895
11,0.0
2,1, 1, 1, 1,22, 0.00,60.00,Sunday
6,15.9
7,79.0
8,7.2
9,116.0
10,1.145439033722447
228,17.349358103358698
229,19.78145367585624
230,17.823822756640867
231,20.896650423211598
232,19.158458438023826
233,16.474221434809598
234,18.506356036894123
235,18.220473522494364
721,-2.528447051468588
722,-4.362725612030491
723,-2.687756633265875
724,-4.680784998723636
725,-1.8555154482894816
726,-2.6007309079772584
727,-2.1189247168568725
728,-2.1746655278339777
11,0.0
2,1, 1, 1, 1,23, 0.00,60.00,Sunday
6,15.8
7,83.0
8,6.1
9,112.0
10,1.1451998362429703
228,17.973475672881027
229,20.039024801642204
230,18.132243876949326
231,20.918701449592566
232,19.131645207708976
233,18.821698763979595
234,18.5772288296242
235,19.67946827073476
721,-2.6250379510571086
722,-4.9291578192469649
723,-3.0549438535839066
724,-4.580258059449895
725,-2.0616629736735208
726,-2.7719598979872748
727,-2.272203822165895
728,-2.3866853641737757
11,0.0
2,1, 1, 1, 1,24, 0.00,60.00,Sunday
6,15.6
7,85.0
8,6.1
9,115.0
10,1.1455528146863357
228,16.434989895051588
229,18.30190241215177
230,17.85364339627437
231,21.56777133429108
232,18.74881634442068
233,16.23677215595204
234,18.41389301259732
235,18.113285441863785
721,-2.5234206264539127
722,-4.862722280703711
723,-2.9841760482208059
724,-4.575913809489257
725,-2.0941527144699925
726,-2.3228588667591869
727,-2.2693257518971494
728,-2.097420291167974
11,0.0
2,2, 1, 2, 1, 1, 0.00,60.00,Monday
6,15.6
7,86.0
8,5.7
9,117.0
10,1.1447355857911915
228,18.22920902029907
229,19.412948223053609
230,17.84911901654931
231,18.21271110468924
232,19.839297726480099
233,16.207287281683845
234,19.12106033649559
235,18.067293623179148
721,-2.850107792505347
722,-5.393759283596906
723,-3.081391431594353
724,-4.380489357080303
725,-2.1918140079988297
726,-2.844096587585013
727,-2.319423137086485
728,-2.441720078536375
11,0.0
2,2, 1, 2, 1, 2, 0.00,60.00,Monday
6,15.3
7,86.0
8,5.4
9,117.0
10,1.1456732982421088
228,17.417188581956997
229,19.64359337162867
230,18.39967818582618
231,19.53499672973011
232,18.947099303032699
233,16.232994574608818
234,18.932986470148838
235,19.17895553204117
721,-2.529291501517674
722,-5.083737074906186
723,-3.1029610082629626
724,-5.398461872016678
725,-2.0078247222829019
726,-2.8817787260954774
727,-2.1953655266549676
728,-2.4764027527178196
11,0.0
2,2, 1, 2, 1, 3, 0.00,60.00,Monday
6,15.1
7,86.0
8,5.0
9,125.0
10,1.1463365356557165
228,17.289914988825254
229,19.251776949067645
230,17.262224837265987
231,19.443363898178448
232,19.149271747134234
233,16.436175475433438
234,18.193085000303357
235,18.454539395066985
721,-2.7142688181058278
722,-5.041051300148506
723,-2.999389034275915
724,-5.044274474937176
725,-2.2079398751362646
726,-2.9130007613298964
727,-2.2506505731928367
728,-2.266702300551841
11,0.0
2,2, 1, 2, 1, 4, 0.00,60.00,Monday
6,15.1
7,87.0
8,5.7
9,129.0
10,1.1457664171164348
228,16.218679023494397
229,19.288130486380358
230,16.98254506311809
231,19.306358365857819
232,17.72300163954506
233,15.625717251182799
234,17.490171423032483
235,18.079582011196515
721,-2.7688667935748878
722,-5.185247394868664
723,-3.2829608725924976
724,-5.098714122097873
725,-2.2075216483318695
726,-2.9018680529061808
727,-2.423877526050843
728,-2.445945272542952
11,0.0
2,2, 1, 2, 1, 5, 0.00,60.00,Monday
6,15.1
7,86.0
8,5.0
9,129.0
10,1.1463365356557165
228,16.64623891489954
229,18.526625634979088
230,16.660597185800478
231,21.621833064046834
232,17.892930211889629
233,16.248727054558687
234,18.776207593486
235,17.361662327957263
721,-2.9992689137931167
722,-5.196675085182047
723,-3.37533110451206
724,-5.162517971232809
725,-2.517943327270967
726,-3.082209236551363
727,-2.5860526875984948
728,-2.548826015702611
11,0.0
2,2, 1, 2, 1, 6, 0.00,60.00,Monday
6,15.0
7,85.0
8,6.6
9,128.0
10,1.1470551283110878
228,15.905393538462521
229,21.25434453310472
230,16.580601576352099
231,18.614856044911347
232,17.527014358243045
233,16.560009569371144
234,17.89812852441495
235,17.170982114304427
721,-2.9464906724986577
722,-5.451453481187729
723,-3.486057770271729
724,-4.4893750962646099
725,-2.522159938994874
726,-2.9908859128122096
727,-2.3529378777374729
728,-2.7290504983399019
11,0.0
2,2, 1, 2, 1, 7, 0.00,60.00,Monday
6,15.6
7,83.0
8,6.0
9,124.0
10,1.1447738902722818
228,16.512737194024156
229,19.288273587593595
230,17.097406263493374
231,19.59630146071305
232,18.499895291098516
233,15.995493114984269
234,17.480572233912239
235,17.834450922960554
721,-3.116792771733181
722,-4.663646818476977
723,-3.534240537396841
724,-5.409052436061912
725,-2.603761422022077
726,-2.9451598474682427
727,-2.5388697424473269
728,-2.7897420692113625
11,0.0
2,2, 1, 2, 1, 8, 0.00,60.00,Monday
6,16.5
7,78.0
8,6.6
9,118.0
10,1.1416597253942587
228,17.041967305880069
229,19.081109461895666
230,17.928893231270906
231,18.855757903321906
232,19.330001304899306
233,17.050177739726175
234,17.817563166744415
235,18.10624338136533
721,-3.0019036916707799
722,-5.251372685975277
723,-3.4207487440191746
724,-5.13379906506722
725,-2.382905409979688
726,-3.051557923910107
727,-2.6273226532133138
728,-2.6345654699595277
11,0.0
2,2, 1, 2, 1, 9, 0.00,60.00,Monday
6,17.5
7,73.0
8,8.5
9,121.0
10,1.1380214191527869
228,17.82880798823436
229,19.875271257131563
230,18.011250724237486
231,20.05247617702736
232,18.519680592917934
233,17.703649693994895
234,18.27800176180029
235,18.049942613076249
721,-2.8875045360995998
722,-5.322012572007759
723,-3.217188004991318
724,-5.360410894362898
725,-2.1451418939784148
726,-2.8281474773801777
727,-2.5652552582529317
728,-2.5259286528749307
11,0.0
2,2, 1, 2, 1,10, 0.00,60.00,Monday
6,18.5
7,69.0
8,7.8
9,115.0
10,1.1340046135858649
228,18.602350411415089
229,20.526363104013674
230,18.952508263142425
231,20.10467956352191
232,19.449775759676766
233,18.629205098062667
234,19.65723172525764
235,18.78837921382973
721,-2.7084161368352195
722,-5.0951072548093239
723,-3.180721939834652
724,-5.014391655675959
725,-2.237415947248685
726,-2.676152115882575
727,-2.4751791865306509
728,-2.493247167867413
11,0.0
2,2, 1, 2, 1,11, 0.00,60.00,Monday
6,19.8
7,57.0
8,7.5
9,103.0
10,1.1305553742158419
228,19.660329831154539
229,21.124650886904449
230,20.045134212937115
231,21.129718533929375
232,20.562941783834338
233,19.782177274694719
234,20.103802531799454
235,20.006345286363456
721,-2.507389153375053
722,-4.893564102194969
723,-2.910257466416201
724,-4.99101182553218
725,-1.952657769604463
726,-2.4499850116509656
727,-2.189938081609975
728,-2.247928219870107
11,0.0
2,2, 1, 2, 1,12, 0.00,60.00,Monday
6,20.5
7,56.0
8,7.3
9,119.0
10,1.1270991003695217
228,20.188167427443216
229,21.241925568679066
230,20.738028913573826
231,21.249500988533769
232,21.140794087946593
233,20.449971788473296
234,20.913696645779806
235,20.77000134050683
721,-2.288836925753517
722,-4.740392254349095
723,-2.6485429383514025
724,-4.707858650643171
725,-1.6747796588205935
726,-2.2263518756338778
727,-2.110028672652201
728,-1.9402960292103607
11,0.0
2,2, 1, 2, 1,13, 0.00,60.00,Monday
6,20.5
7,54.0
8,8.4
9,121.0
10,1.1268409606251726
228,20.43984636544748
229,21.25270580766623
230,20.844977285422787
231,21.418222254268007
232,21.628141255412844
233,20.44300666990059
234,20.949550361099268
235,20.898124547842785
721,-2.1326270923214727
722,-4.704553375407471
723,-2.4490397929743317
724,-4.671128482203593
725,-1.5016026365355977
726,-2.0547576401526435
727,-1.9238752045989145
728,-1.7124909773835116
11,0.0
2,2, 1, 2, 1,14, 0.00,60.00,Monday
6,21.6
7,56.0
8,8.4
9,121.0
10,1.1209486760759429
228,21.414016255362364
229,22.15316312033468
230,21.8284480728907
231,22.38448441835936
232,22.176047261887633
233,21.501890794506929
234,22.146610700594544
235,21.916589396753506
721,-2.047690236637656
722,-4.689076287971065
723,-2.3971134227956498
724,-4.604848997737123
725,-1.3606769951496088
726,-2.0345032512461995
727,-1.899386832577043
728,-1.634667498709576
11,0.0
2,2, 1, 2, 1,15, 0.00,60.00,Monday
6,21.3
7,49.0
8,8.9
9,111.0
10,1.123554432362637
228,21.12624684999052
229,22.24451053202258
230,21.71601767232322
231,22.2852012231695
232,22.222677858277075
233,21.270637611020648
234,22.07674226987693
235,21.93283887740317
721,-1.7853984444656388
722,-4.378635706370164
723,-2.1250316546963328
724,-4.276313876309802
725,-1.2229608123378118
726,-1.771423949995588
727,-1.6153493965854236
728,-1.370393232250622
11,0.0
2,2, 1, 2, 1,16, 0.00,60.00,Monday
6,19.5
7,58.0
8,8.6
9,106.0
10,1.1293525591531353
228,19.913558008208473
229,21.404509994827074
230,20.522938422852776
231,21.45696868892961
232,21.56120638335276
233,20.20806117497054
234,20.774969518066393
235,21.105484119687849
721,-1.8640808607350428
722,-4.3413519623237699
723,-2.1795102429911448
724,-4.288072313380729
725,-1.2704993097257663
726,-1.8595530106122256
727,-1.6349282708387448
728,-1.3877845765756199
11,0.0
2,2, 1, 2, 1,17, 0.00,60.00,Monday
6,19.4
7,51.0
8,7.7
9,102.0
10,1.1317143145052589
228,20.56865861752622
229,21.94702078097999
230,20.368765551469879
231,21.49380633211797
232,21.547884139061599
233,19.620972610185534
234,21.656378249485998
235,20.396370098429995
721,-2.072075131669797
722,-4.617203560846246
723,-2.467309688454685
724,-4.567135178765043
725,-1.4449288533449239
726,-2.047957299727286
727,-1.892303728725797
728,-1.617008390632513
11,0.0
2,2, 1, 2, 1,18, 0.00,60.00,Monday
6,18.7
7,62.0
8,8.1
9,103.0
10,1.1326599905376258
228,19.93676719201649
229,21.28629791704558
230,19.76513517715942
231,21.212608714180236
232,20.745494595681437
233,18.885786419329717
234,21.066292292674914
235,19.940584176792777
721,-1.9831577012499305
722,-4.4690320597609409
723,-2.5408726306960416
724,-4.572852467781423
725,-1.516274701616343
726,-2.2125196449028095
727,-1.723646763849927
728,-1.8294449418386998
11,0.0
2,2, 1, 2, 1,19, 0.00,60.00,Monday
6,17.9
7,66.0
8,6.0
9,107.0
10,1.135575029975802
228,18.669481877073804
229,20.64125897953038
230,19.358670925800835
231,20.91836597745193
232,20.062868671908313
233,18.33610959131154
234,20.23066675299141
235,19.501883109202184
721,-2.0893080207522427
722,-4.64338611616565
723,-2.6619109051813485
724,-4.635683355610602
725,-1.722262762579622
726,-2.3330288936660108
727,-1.8347739764424734
728,-1.9617767000074796
11,0.0
2,2, 1, 2, 1,20, 0.00,60.00,Monday
6,17.3
7,70.0
8,6.6
9,111.0
10,1.1375765768651048
228,17.96327874969606
229,20.477469334672894
230,18.438965984182283
231,20.1800999938213
232,19.3025792691207
233,17.65295403780293
234,19.12384869149607
235,18.671781861410076
721,-2.35125591076996
722,-4.817554028552577
723,-2.7678269175384555
724,-4.708345666001571
725,-1.889979420327563
726,-2.4568868138979087
727,-1.9944396993104139
728,-2.089219920778222
11,0.0
2,2, 1, 2, 1,21, 0.00,60.00,Monday
6,16.6
7,72.0
8,5.5
9,119.0
10,1.140712714559372
228,17.467730218915777
229,19.867361524798583
230,18.590512502910696
231,20.58046074828853
232,20.715753659016565
233,18.022711351537806
234,19.40512850697865
235,18.09013145633179
721,-2.5137428982330718
722,-4.873390502723154
723,-2.992667813565729
724,-4.927220028335962
725,-2.0790969012771547
726,-2.604936109744034
727,-2.2106061154656686
728,-2.3060384633165298
11,0.0
2,2, 1, 2, 1,22, 0.00,60.00,Monday
6,16.2
7,73.0
8,5.9
9,113.0
10,1.1423595563867464
228,17.02858170549872
229,19.261098115451746
230,17.92812591868354
231,19.107667374102378
232,18.923385178007103
233,16.51442866384666
234,18.657555973127395
235,18.096991560846058
721,-2.652614127630082
722,-5.055842574936703
723,-2.9884024745709869
724,-4.813998939226441
725,-1.8377983780248704
726,-2.5592370456868736
727,-2.1773010217434209
728,-2.469042721998996
11,0.0
2,2, 1, 2, 1,23, 0.00,60.00,Monday
6,16.0
7,76.0
8,5.0
9,113.0
10,1.1425774087204457
228,17.146187019495053
229,19.7603910335253
230,17.990439548775094
231,19.596478977116658
232,18.883162967965654
233,16.82955291299728
234,18.418039937790679
235,18.192375747083824
721,-2.778432729579114
722,-5.255361297509729
723,-3.1635009726965066
724,-5.2708762433488689
725,-2.221264130723678
726,-2.883219962694989
727,-2.347621918806674
728,-2.5110956491212406
11,0.0
2,2, 1, 2, 1,24, 0.00,60.00,Monday
6,15.9
7,78.0
8,4.4
9,116.0
10,1.1419199787046302
228,17.619515014652767
229,21.501993758213645
230,18.114305188535416
231,21.854422492750133
232,19.335364227716789
233,18.00967719034687
234,19.17791552946003
235,17.994169569586874
721,-2.779358238509245
722,-5.112378098873004
723,-3.161861400892785
724,-5.135027057524995
725,-2.254370675315652
726,-2.8389076001380828
727,-2.4057476145053506
728,-2.5094921529663405
11,0.0
2,3, 1, 3, 1, 1, 0.00,60.00,Tuesday
6,16.0
7,82.0
8,3.4
9,121.0
10,1.1400576313492628
228,17.078338524533316
229,19.014930285019977
230,17.857817416932929
231,19.021282685787104
232,19.9938120815958
233,16.770933307756274
234,18.76101529158738
235,18.011415994200566
721,-2.705204174946445
722,-4.595605684408384
723,-3.143696234648352
724,-4.465630915759931
725,-2.180821160767396
726,-2.6157433881702589
727,-2.2645828135108627
728,-2.563991660424807
11,0.0
2,3, 1, 3, 1, 2, 0.00,60.00,Tuesday
6,14.6
7,98.0
8,6.9
9,119.0
10,1.1433322065183125
228,17.486803963678687
229,17.937446263182417
230,15.984637776701574
231,19.439245872882866
232,17.671255372543489
233,15.49223306702414
234,18.789917114767428
235,17.00861060336311
721,-2.8129256792714045
722,-5.312136165528325
723,-3.2012274079305098
724,-5.282997934637631
725,-2.0831166299471408
726,-2.855133000113546
727,-2.3433778367636197
728,-2.572592366638129
11,0.0
2,3, 1, 3, 1, 3, 0.00,60.00,Tuesday
6,14.4
7,98.0
8,4.6
9,135.0
10,1.1441386545157546
228,15.8381857199441
229,19.803009830956208
230,16.544407443202809
231,18.9733929520672
232,17.43877959561601
233,16.153328236586576
234,18.277464201744743
235,17.006292396082054
721,-2.731273258611621
722,-5.6134411119801419
723,-3.6239774207409538
724,-5.135443810378809
725,-2.5407526829712188
726,-3.1018240806773607
727,-2.3243925639702756
728,-2.8013457601528399
11,0.0
2,3, 1, 3, 1, 4, 0.00,60.00,Tuesday
6,14.7
7,99.0
8,5.0
9,132.0
10,1.1419995586916668
228,15.787743916503736
229,18.35659520829278
230,16.64153921562704
231,18.248618624552539
232,19.555663633495699
233,15.255252955203101
234,17.708768442640417
235,16.941382438331244
721,-3.080319817333896
722,-5.081258710197192
723,-3.530363170162375
724,-5.295131100738664
725,-2.61245731861664
726,-3.0048233938567368
727,-2.4402273634388997
728,-2.8178730001330707
11,0.0
2,3, 1, 3, 1, 5, 0.00,60.00,Tuesday
6,14.7
7,99.0
8,5.2
9,129.0
10,1.1418785122939764
228,15.824857317635776
229,19.350690589576808
230,16.87198815590494
231,21.579710082151647
232,17.767656572695328
233,15.18035415086467
234,17.49889279251489
235,17.17839781578303
721,-3.109210567690409
722,-5.5149213183181
723,-3.5199321752114076
724,-5.522673644298753
725,-2.216388472154597
726,-3.192893119955741
727,-2.5613890784421398
728,-2.8427015952388055
11,0.0
2,3, 1, 3, 1, 6, 0.00,60.00,Tuesday
6,14.0
7,99.0
8,7.1
9,128.0
10,1.1456736916555224
228,15.992596279674537
229,19.80397734014889
230,15.282861465936723
231,18.134628733266636
232,16.232350033901889
233,14.585129432624065
234,17.42177377080071
235,16.035563987751446
721,-3.129718627028022
722,-5.241336892560194
723,-3.4890294418106548
724,-4.550478261178045
725,-2.587075597640502
726,-3.23696514789947
727,-2.620642107617416
728,-2.8115588953014725
11,0.0
2,3, 1, 3, 1, 7, 0.00,60.00,Tuesday
6,13.6
7,99.0
8,5.1
9,130.0
10,1.148616083017274
228,16.169234275302054
229,18.043946874920246
230,14.989026580956909
231,18.150352488533838
232,16.06844968525713
233,14.11656846309575
234,17.228014371375374
235,15.891916583325067
721,-3.1400267705406219
722,-5.142540530772378
723,-3.9045595997202575
724,-5.6154572536234099
725,-2.942712722834198
726,-3.402055912744485
727,-2.6682884635914165
728,-3.100788017928381
11,0.0
2,3, 1, 3, 1, 8, 0.00,60.00,Tuesday
6,14.1
7,99.0
8,3.8
9,111.0
10,1.1472119665530174
228,15.3934204884
229,20.508252739989936
230,16.268812698628865
231,18.603402873051274
232,16.786109365437239
233,15.145446999596502
234,17.188497372171143
235,17.182935546819928
721,-3.1367482878090295
722,-5.707288933365075
723,-4.017226475689495
724,-5.660342954202367
725,-3.0123894240801847
726,-3.534400112094973
727,-2.731586116110499
728,-3.1653727472209529
11,0.0
2,3, 1, 3, 1, 9, 0.00,60.00,Tuesday
6,14.7
7,99.0
8,4.7
9,135.0
10,1.1445415330431635
228,16.27749013396959
229,19.366593474747217
230,17.134093451873384
231,18.441603006673934
232,17.85498561313414
233,15.81677649851454
234,17.305984712308726
235,18.065795273339277
721,-3.2919394210734516
722,-4.9850478568012079
723,-3.7193485987645276
724,-5.536459904400708
725,-2.866353257618264
726,-3.3361962120482819
727,-2.7477904587520016
728,-2.878197314444777
11,0.0
2,3, 1, 3, 1,10, 0.00,60.00,Tuesday
6,14.8
7,99.0
8,3.0
9,123.0
10,1.1440143264673784
228,15.98363030309234
229,18.4090295188786
230,17.190202008578333
231,19.123215399394103
232,17.913361278384199
233,15.34448730281772
234,18.11131052864984
235,17.9877976390391
721,-3.114971192592954
722,-5.314500162014707
723,-3.5085220942181718
724,-5.58591209035325
725,-2.6366662669283755
726,-3.19128292542315
727,-2.720535113542647
728,-2.6756841446070727
11,0.0
2,3, 1, 3, 1,11, 0.00,60.00,Tuesday
6,14.9
7,99.0
8,2.4
9,136.0
10,1.1434867491405248
228,16.220704484729248
229,17.965417200266054
230,17.37911577655806
231,18.826183227480969
232,18.980293241844604
233,15.834487671085839
234,18.106047320508166
235,17.96052542276123
721,-3.1674673679221816
722,-5.596992855511679
723,-3.4914961049522756
724,-5.379567111837612
725,-2.5987339810118827
726,-3.278971527953327
727,-2.562190894693775
728,-2.667894363016886
11,0.0
2,3, 1, 3, 1,12, 0.00,60.00,Tuesday
6,15.7
7,98.0
8,3.9
9,127.0
10,1.1395882112224126
228,16.333019595778553
229,18.477398447990035
230,17.091427510876927
231,18.024416577713326
232,17.7063992159601
233,16.57236430098261
234,17.897955935899114
235,17.83758534956475
721,-3.1090156855193378
722,-5.742292326347621
723,-3.43066604422319
724,-5.470637747063102
725,-2.325895894400725
726,-3.1632207408419008
727,-2.5600104888977759
728,-2.6266324108844207
11,0.0
2,3, 1, 3, 1,13, 0.00,60.00,Tuesday
6,16.3
7,91.0
8,3.5
9,82.0
10,1.1372431040666014
228,16.92543030438126
229,20.33819259936334
230,17.938221164330409
231,18.885705042702747
232,18.4063571076914
233,16.913826730500916
234,19.08702503881488