Program Version,EnergyPlus, Version 8.7.0-78a111df4a, YMD=2018.01.28 10:13
1,5,Environment Title[],Latitude[deg],Longitude[deg],Time Zone[],Elevation[m]
2,6,Day of Simulation[],Month[],Day of Month[],DST Indicator[1=yes 0=no],Hour[],StartMinute[],EndMinute[],DayType
3,3,Cumulative Day of Simulation[],Month[],Day of Month[],DST Indicator[1=yes 0=no],DayType  ! When Daily Report Variables Requested
4,2,Cumulative Days of Simulation[],Month[]  ! When Monthly Report Variables Requested
5,1,Cumulative Days of Simulation[] ! When Run Period Report Variables Requested
6,1,Environment,Site Outdoor Air Drybulb Temperature [C] !TimeStep
7,1,Environment,Site Outdoor Air Relative Humidity [%] !TimeStep
8,1,Environment,Site Wind Speed [m/s] !TimeStep
9,1,Environment,Site Wind Direction [deg] !TimeStep
10,1,Environment,Site Outdoor Air Density [kg/m3] !TimeStep
11,1,Environment,Site Rain Status [] !TimeStep
228,1,BLOCK1:ZONE4,Zone Mean Air Temperature [C] !TimeStep,ON
229,1,BLOCK1:ZONE3,Zone Mean Air Temperature [C] !TimeStep,ON
230,1,BLOCK1:ZONE7,Zone Mean Air Temperature [C] !TimeStep,ON
231,1,BLOCK1:ZONE6,Zone Mean Air Temperature [C] !TimeStep,ON
232,1,BLOCK1:ZONE5,Zone Mean Air Temperature [C] !TimeStep,ON
233,1,BLOCK1:ZONE1,Zone Mean Air Temperature [C] !TimeStep,ON
234,1,BLOCK1:ZONE2,Zone Mean Air Temperature [C] !TimeStep,ON
235,1,BLOCK6:ZONE1,Zone Mean Air Temperature [C] !TimeStep,ON
721,1,PEOPLE BLOCK1:ZONE4,Zone Thermal Comfort Fanger Model PMV [] !TimeStep,ON
722,1,PEOPLE BLOCK1:ZONE3,Zone Thermal Comfort Fanger Model PMV [] !TimeStep,ON
723,1,PEOPLE BLOCK1:ZONE7,Zone Thermal Comfort Fanger Model PMV [] !TimeStep,ON
724,1,PEOPLE BLOCK1:ZONE6,Zone Thermal Comfort Fanger Model PMV [] !TimeStep,ON
725,1,PEOPLE BLOCK1:ZONE5,Zone Thermal Comfort Fanger Model PMV [] !TimeStep,ON
726,1,PEOPLE BLOCK1:ZONE1,Zone Thermal Comfort Fanger Model PMV [] !TimeStep,ON
727,1,PEOPLE BLOCK1:ZONE2,Zone Thermal Comfort Fanger Model PMV [] !TimeStep,ON
728,1,PEOPLE BLOCK6:ZONE1,Zone Thermal Comfort Fanger Model PMV [] !TimeStep,ON
End of Data Dictionary
1,SANTA MARIA, -31.41, -52.70,  -3.00, 464.00
2,1, 1, 1, 1, 1, 0.00,60.00,Sunday
6,16.8
7,91.0
8,5.4
9,123.0
10,1.1359486530452514
228,17.177996271480717
229,19.520657311482315
230,17.75954933418757
231,19.499296868393903
232,18.666773752768074
233,16.988976946671018
234,17.6725750033194
235,18.352289161954198
721,-1.7993950579474943
722,-4.724101807064606
723,-1.5875862984004697
724,-4.657582991906697
725,-1.1656474034731848
726,-1.4576259562615453
727,-1.4962527794817245
728,-1.2038861713575496
11,0.0
2,1, 1, 1, 1, 2, 0.00,60.00,Sunday
6,16.5
7,92.0
8,4.6
9,135.0
10,1.1369342048591405
228,18.580299280310727
229,20.629646045767378
230,18.663312516282934
231,20.895678558418337
232,21.192902622315108
233,18.46057541227767
234,19.072465224522888
235,18.662856016283628
721,-2.553047748097216
722,-4.924402888619706
723,-2.8339018304946226
724,-4.888569304197433
725,-2.0218081973831909
726,-2.4395133405541475
727,-2.303788155998079
728,-2.186232240324158
11,0.0
2,1, 1, 1, 1, 3, 0.00,60.00,Sunday
6,16.6
7,92.0
8,4.6
9,143.0
10,1.1365295026141374
228,17.78536920760797
229,21.45956654888811
230,18.23419449856341
231,21.26872321600789
232,19.61015254830091
233,18.319734112896407
234,19.101016772183429
235,18.359825049735773
721,-2.316243825194889
722,-4.597526896939683
723,-2.675667992749891
724,-4.476039656202162
725,-1.5660690687093848
726,-2.195812028036968
727,-2.0511609027982176
728,-2.1664209222362915
11,0.0
2,1, 1, 1, 1, 4, 0.00,60.00,Sunday
6,16.5
7,94.0
8,3.1
9,152.0
10,1.1372042989547578
228,19.412077592366566
229,20.27343700645101
230,19.552186037756195
231,20.21238422691942
232,19.907452105990218
233,18.76170395577294
234,19.703440521437885
235,19.219305195487644
721,-2.487821194667129
722,-4.356306107664784
723,-2.808566460085443
724,-4.370295200061869
725,-1.8955966792172173
726,-2.247608909362769
727,-2.064022545988949
728,-2.2637565110448074
11,0.0
2,1, 1, 1, 1, 5, 0.00,60.00,Sunday
6,16.3
7,94.0
8,4.8
9,144.0
10,1.137777485189455
228,17.786136966103638
229,21.88921758366903
230,17.980887108126156
231,19.87166548607278
232,18.839675908849814
233,16.619354316268479
234,19.852426715692915
235,18.472395530350594
721,-2.188226921110497
722,-4.70457216496733
723,-2.5260737995415858
724,-4.6833473432819698
725,-1.8561153596832188
726,-2.1773754990829174
727,-1.9523107514443195
728,-2.0935837031790918
11,0.0
2,1, 1, 1, 1, 6, 0.00,60.00,Sunday
6,16.4
7,94.0
8,4.7
9,146.0
10,1.1376115044377353
228,17.509461786681006
229,18.751038766267155
230,18.000643467208226
231,19.858453562896814
232,19.18349958170723
233,17.44779500084467
234,19.151881088252187
235,18.176475101609549
721,-2.5179800075411604
722,-4.238648106179434
723,-2.9136146145967545
724,-4.805540480610295
725,-2.1016501587160749
726,-2.633381384086909
727,-1.9411221901843854
728,-2.282883385085748
11,0.0
2,1, 1, 1, 1, 7, 0.00,60.00,Sunday
6,17.2
7,93.0
8,6.8
9,153.0
10,1.1340959510640024
228,18.140363627904486
229,22.233529920118934
230,18.57584328462726
231,20.431246344825984
232,19.534219720614048
233,17.35175241115682
234,19.45451740891535
235,18.097831330178246
721,-2.5848889688359959
722,-5.180272041192028
723,-2.9313559673750837
724,-4.8195538152025219
725,-2.029534780594229
726,-2.48845639753503
727,-2.094383379694856
728,-2.3495522663625989
11,0.0
2,1, 1, 1, 1, 8, 0.00,60.00,Sunday
6,18.2
7,84.0
8,7.7
9,140.0
10,1.1316304978873615
228,18.50133113537312
229,21.70826111764933
230,19.225320884618705
231,20.690176446620776
232,19.694612819447749
233,18.440429030937666
234,19.089513845930033
235,18.94623144454043
721,-2.439379781022244
722,-4.144134549284187
723,-2.7937325089537814
724,-4.6326577911932749
725,-1.8857628793324084
726,-2.478035193526182
727,-2.022019236042679
728,-2.327829805556079
11,0.0
2,1, 1, 1, 1, 9, 0.00,60.00,Sunday
6,19.4
7,75.0
8,7.9
9,144.0
10,1.128250990973346
228,19.616203989381959
229,21.350618708248868
230,19.6469823232682
231,22.02955836786979
232,20.135218822839215
233,19.83796515280591
234,20.036204432961485
235,19.601314547822228
721,-2.3598260572263465
722,-4.287897164286571
723,-2.631073114908294
724,-4.5638426633987729
725,-1.7815096685770909
726,-2.263604503963558
727,-2.097396864843165
728,-2.1067768319014896
11,0.0
2,1, 1, 1, 1,10, 0.00,60.00,Sunday
6,21.6
7,67.0
8,8.7
9,133.0
10,1.1193658090518289
228,21.235336226877153
229,21.751741438853665
230,21.53559070816329
231,21.79197404291847
232,21.694715827018006
233,21.544107578148137
234,21.464112111870965
235,21.455278836869146
721,-2.102810230414404
722,-4.401947181149108
723,-2.5074362879665386
724,-4.169433406241772
725,-1.6150795344257588
726,-1.963659605323505
727,-1.902091484111053
728,-1.8972380315276869
11,0.0
2,1, 1, 1, 1,11, 0.00,60.00,Sunday
6,21.2
7,67.0
8,8.9
9,126.0
10,1.1216193279002236
228,21.112087028230787
229,21.797019943542837
230,21.4048045073372
231,22.003211826822409
232,21.88154487567293
233,21.21896383693479
234,21.597881976657196
235,21.46258858194106
721,-1.7225522038126569
722,-4.2747239241436889
723,-2.0266363520496109
724,-4.232902713539656
725,-1.2479742513788366
726,-1.5910811777831547
727,-1.6000385089229983
728,-1.4164475712930725
11,0.0
2,1, 1, 1, 1,12, 0.00,60.00,Sunday
6,22.0
7,59.0
8,9.1
9,127.0
10,1.1198415694503799
228,21.662521115149514
229,22.640671390010213
230,22.19982583286299
231,22.59179775321096
232,23.147311325307859
233,21.973383342450338
234,22.518614703872893
235,22.14823966835472
721,-1.7060532266001507
722,-4.2573039933106229
723,-2.0121925821818738
724,-4.165500096817503
725,-1.1290526802154717
726,-1.6242831501727402
727,-1.55854171624969
728,-1.3296861212459952
11,0.0
2,1, 1, 1, 1,13, 0.00,60.00,Sunday
6,23.9
7,54.0
8,8.6
9,116.0
10,1.1113661725305675
228,23.425411089829799
229,23.707240120054516
230,23.91576236855511
231,23.967927344027176
232,24.09696874578172
233,23.812606061332845
234,24.23205478292841
235,23.832754103814915
721,-1.5848234465120588
722,-4.025532553318982
723,-1.831246181781261
724,-4.0079336505373519
725,-0.8130204370676455
726,-1.478143505916861
727,-1.3786813021496243
728,-1.1436957158687385
11,0.0
2,1, 1, 1, 1,14, 0.00,60.00,Sunday
6,21.0
7,66.0
8,9.0
9,113.0
10,1.1220914658639743
228,21.28796745891129
229,22.561750393584274
230,21.58106354935224
231,22.67986491729251
232,22.32837932537079
233,21.11394578634559
234,22.27675372826511
235,21.78056603457469
721,-1.193392209187205
722,-3.688656971665422
723,-1.3954951567566414
724,-3.5756922867535296
725,-0.6205870250416173
726,-1.081718793960417
727,-0.9996783639206675
728,-0.7291909284202328
11,0.0
2,1, 1, 1, 1,15, 0.00,60.00,Sunday
6,20.4
7,66.0
8,8.3
9,115.0
10,1.1252109108450977
228,20.67658144142335
229,21.886788735915404
230,21.46549788707613
231,22.318694489359307
232,22.540667869479237
233,20.70685573081955
234,21.41705209611931
235,21.55014641757033
721,-1.5638184396394948
722,-3.9960265194531066
723,-1.9019529801991429
724,-3.925061082709096
725,-0.9717782963454269
726,-1.573471930674996
727,-1.35789213359989
728,-1.1536452624548859
11,0.0
2,1, 1, 1, 1,16, 0.00,60.00,Sunday
6,20.7
7,67.0
8,9.1
9,121.0
10,1.1230664363386743
228,21.21850203206207
229,21.73688629037371
230,21.021480761526566
231,21.737947929872236
232,21.940242240024277
233,21.090943687559407
234,21.262133067632616
235,21.211450200081
721,-1.6911789630332884
722,-4.191026485639271
723,-1.9631645796570965
724,-4.026806325271334
725,-0.9794159519932149
726,-1.6788912377761823
727,-1.5351367241150096
728,-1.2503540746993276
11,0.0
2,1, 1, 1, 1,17, 0.00,60.00,Sunday
6,18.2
7,82.0
8,8.7
9,122.0
10,1.131652122282624
228,18.80550512512942
229,20.858791174306675
230,18.922328187595686
231,21.20759837535701
232,20.877362614300276
233,18.426912724488223
234,20.230438823302945
235,19.205956736879604
721,-1.5874979970666905
722,-4.228317980595555
723,-2.081655461188323
724,-4.194252656421775
725,-1.169699001933693
726,-1.6159723173541488
727,-1.5620549452272552
728,-1.376109423948877
11,0.0
2,1, 1, 1, 1,18, 0.00,60.00,Sunday
6,18.8
7,74.0
8,8.9
9,129.0
10,1.1303761914746822
228,19.516734879927627
229,21.021323099668185
230,19.552334675513497
231,21.55770352183899
232,20.272308812505977
233,18.965103427434369
234,20.367388387946194
235,19.46731241557565
721,-2.05784837363727
722,-4.464210401779777
723,-2.5738955062807515
724,-4.3298620356953869
725,-1.3991830821136445
726,-2.1394424803120395
727,-1.7582899918668056
728,-1.8550486213946689
11,0.0
2,1, 1, 1, 1,19, 0.00,60.00,Sunday
6,17.6
7,77.0
8,7.5
9,118.0
10,1.1365542858182583
228,18.41228116776718
229,20.59488184665946
230,19.732223740577873
231,20.798471281359057
232,20.586638835711104
233,19.407426049542808
234,19.900174072314657
235,20.41811274404226
721,-1.9865211867328206
722,-4.43878786034492
723,-2.4915342222940959
724,-4.24622627253515
725,-1.608520900313256
726,-2.105689628160248
727,-1.7663441513358094
728,-1.8879927422168559
11,0.0
2,1, 1, 1, 1,20, 0.00,60.00,Sunday
6,16.7
7,80.0
8,8.0
9,122.0
10,1.140429905989436
228,18.51841694608899
229,20.429781602482387
230,18.141669499008385
231,21.367330416531475
232,20.21725812474622
233,16.938409341069684
234,18.948293354451747
235,18.1907221426223
721,-2.256086588664675
722,-4.599807662533516
723,-2.485033849342113
724,-4.506982146243712
725,-1.622472854253746
726,-2.0596707696322458
727,-1.89660646485991
728,-1.7534260523394652
11,0.0
2,1, 1, 1, 1,21, 0.00,60.00,Sunday
6,16.2
7,79.0
8,7.9
9,119.0
10,1.1435576207758496
228,17.842605361285416
229,21.08264661276046
230,18.19750279346087
231,20.346436156810087
232,20.564990441888275
233,18.528134503649328
234,18.738473648422823
235,18.966622528535056
721,-2.2875149047947116
722,-4.6762404400448409
723,-2.8988694517876216
724,-4.363007254060629
725,-1.7534503872921657
726,-2.587225690853854
727,-2.115625476941425
728,-2.2869825523847657
11,0.0
2,1, 1, 1, 1,22, 0.00,60.00,Sunday
6,15.9
7,79.0
8,7.2
9,116.0
10,1.145439033722447
228,17.281775101131168
229,21.424700136272457
230,17.258319608102278
231,21.78916703185972
232,18.228356170644689
233,16.59966792856413
234,19.096721125750834
235,18.002329966214913
721,-2.4769703026361999
722,-4.504039696713503
723,-2.929456010059721
724,-4.693552425304697
725,-1.7349297675316305
726,-2.3205555426003006
727,-2.1921110919662669
728,-2.183028271699204
11,0.0
2,1, 1, 1, 1,23, 0.00,60.00,Sunday
6,15.8
7,83.0
8,6.1
9,112.0
10,1.1451998362429703
228,17.493487809295784
229,19.7736615585565
230,17.167628908845289
231,18.73032203418336
232,18.117603509913019
233,18.196538113878586
234,19.376885250748175
235,17.85211711910873
721,-2.6336198804365855
722,-4.425551490957585
723,-3.1907877951761014
724,-4.291519285208341
725,-2.2466971048769537
726,-2.7406333040163024
727,-2.1575687044616504
728,-2.4388176240936425
11,0.0
2,1, 1, 1, 1,24, 0.00,60.00,Sunday
6,15.6
7,85.0
8,6.1
9,115.0
10,1.1455528146863357
228,16.943720468537245
229,21.060266062030565
230,16.740725601417556
231,19.81111962526489
232,17.760070604491763
233,15.87636636530187
234,19.10634397925901
235,17.562310605466999
721,-2.6129058782811387
722,-4.916504873738086
723,-3.23499369954196
724,-5.209587753639481
725,-2.303249112096686
726,-2.4420257482143215
727,-2.1131127918232357
728,-2.499025729475196
11,0.0
2,2, 1, 2, 1, 1, 0.00,60.00,Monday
6,15.6
7,86.0
8,5.7
9,117.0
10,1.1447355857911915
228,17.13885313323182
229,20.885422750619264
230,17.264953187638157
231,21.359252959407173
232,18.11263927120034
233,16.192808388856336
234,19.316973438812647
235,17.723599742887435
721,-2.7470136330028285
722,-4.545025808011071
723,-3.3632308370415928
724,-4.909168425614232
725,-2.408003158190472
726,-2.921169420219451
727,-2.177244721644307
728,-2.592408655622955
11,0.0
2,2, 1, 2, 1, 2, 0.00,60.00,Monday
6,15.3
7,86.0
8,5.4
9,117.0
10,1.1456732982421088
228,17.017178134894306
229,21.543483734914998
230,16.52761469599848
231,19.112095431866125
232,17.452844983331397
233,15.935062849234056
234,19.290089568934034
235,17.23526064905263
721,-2.7338375042107199
722,-4.601055576520879
723,-3.2704903287863607
724,-4.455017839796315
725,-2.371386049352527
726,-2.893258309131592
727,-2.148110411629246
728,-2.5776678312873138
11,0.0
2,2, 1, 2, 1, 3, 0.00,60.00,Monday
6,15.1
7,86.0
8,5.0
9,125.0
10,1.1463365356557165
228,16.320551049440547
229,19.274479828205004
230,16.707728832176984
231,19.8063685172148
232,17.547332948041416
233,15.629699071305549
234,17.839701794706725
235,17.526037233308807
721,-2.7898956555681986
722,-4.420976085871177
723,-3.4763419021864627
724,-5.146109654066285
725,-2.542990060681024
726,-2.982302529538314
727,-2.174358204760266
728,-2.7182966917727908
11,0.0
2,2, 1, 2, 1, 4, 0.00,60.00,Monday
6,15.1
7,87.0
8,5.7
9,129.0
10,1.1457664171164348
228,16.54955386700765
229,19.60789547885287
230,17.965487657188026
231,19.442410315233454
232,19.85580477530356
233,16.08782918027849
234,18.12286727266301
235,18.418100102038776
721,-2.957754052370037
722,-5.122396797696829
723,-3.467563849767154
724,-4.970804486678648
725,-2.5650825554843976
726,-3.0766287498230464
727,-2.4881656050730887
728,-2.684306651907678
11,0.0
2,2, 1, 2, 1, 5, 0.00,60.00,Monday
6,15.1
7,86.0
8,5.0
9,129.0
10,1.1463365356557165
228,16.352661218813343
229,20.399553218381425
230,16.915768899632974
231,18.78560284518248
232,17.67078419815818
233,15.408946302703346
234,18.70043741543393
235,17.5719716068375
721,-2.936352989749493
722,-5.045373800604266
723,-3.1935735846569268
724,-5.095503926475445
725,-2.1284642493629488
726,-3.007393640538586
727,-2.4516275760196688
728,-2.5076692887918248
11,0.0
2,2, 1, 2, 1, 6, 0.00,60.00,Monday
6,15.0
7,85.0
8,6.6
9,128.0
10,1.1470551283110878
228,15.916579758529583
229,19.04672533540637
230,16.222559837010765
231,21.435625831306234
232,17.436975190609215
233,15.654248245696545
234,18.124832474098328
235,16.846800412084894
721,-3.001808808079086
722,-4.830147062571596
723,-3.4600835708885659
724,-5.320238877838008
725,-2.583066269201004
726,-3.1686561482979318
727,-2.359495352526188
728,-2.7127181828702664
11,0.0
2,2, 1, 2, 1, 7, 0.00,60.00,Monday
6,15.6
7,83.0
8,6.0
9,124.0
10,1.1447738902722818
228,16.3173275994852
229,19.460006419849873
230,17.926738482572238
231,19.146733455372535
232,18.32811789086783
233,16.018441806366945
234,17.516802120320319
235,17.70925438980766
721,-3.113190023707068
722,-5.266196800979365
723,-3.649810807580842
724,-4.557342928832031
725,-2.6436578477304746
726,-3.1454103325739015
727,-2.4885754756261067
728,-2.883574266129251
11,0.0
2,2, 1, 2, 1, 8, 0.00,60.00,Monday
6,16.5
7,78.0
8,6.6
9,118.0
10,1.1416597253942587
228,17.04960611548877
229,19.578208336682999
230,18.024118924741996
231,19.55285237574452
232,18.871406679735185
233,17.04292112669191
234,18.036437168383203
235,18.183073166216944
721,-3.0392725688294317
722,-5.158525197534526
723,-3.266338447811694
724,-5.242984464594589
725,-2.431837373534775
726,-3.068348256070558
727,-2.6127608947034179
728,-2.6793532106050299
11,0.0
2,2, 1, 2, 1, 9, 0.00,60.00,Monday
6,17.5
7,73.0
8,8.5
9,121.0
10,1.1380214191527869
228,17.709452910238939
229,19.35568777597263
230,18.358360411906277
231,19.232121930938207
232,20.00940861005666
233,17.61562836906644
234,18.761911259571627
235,18.080256831657647
721,-2.885896186285972
722,-5.133292941578717
723,-3.2207038019752205
724,-5.134884018177109
725,-2.255419303995646
726,-2.846458240939138
727,-2.5180412034664787
728,-2.5347222076524749
11,0.0
2,2, 1, 2, 1,10, 0.00,60.00,Monday
6,18.5
7,69.0
8,7.8
9,115.0
10,1.1340046135858649
228,18.587561479619809
229,20.3019841030541
230,19.11836319546908
231,20.083510472225396
232,19.991074805496078
233,18.655565955461606
234,19.65058258978241
235,19.022398664035486
721,-2.7307560655218516
722,-5.212206339770217
723,-3.1189031125225625
724,-5.242995942502994
725,-1.9598341985604977
726,-2.707980357814592
727,-2.3746391424981616
728,-2.502836835847461
11,0.0
2,2, 1, 2, 1,11, 0.00,60.00,Monday
6,19.8
7,57.0
8,7.5
9,103.0
10,1.1305553742158419
228,19.712597802374359
229,20.703187333777387
230,20.043054818125776
231,21.13278001682051
232,20.63893928868145
233,19.76006312690842
234,20.224165092896823
235,19.99152175659624
721,-2.510078912053597
722,-4.928307489846102
723,-2.8886876248296615
724,-4.986306044080168
725,-1.8561977593116304
726,-2.4579138444340749
727,-2.182277990243134
728,-2.2188179458818975
11,0.0
2,2, 1, 2, 1,12, 0.00,60.00,Monday
6,20.5
7,56.0
8,7.3
9,119.0
10,1.1270991003695217
228,20.379626637867817
229,21.254061329285315
230,20.657979650855
231,21.279888075562448
232,21.267318644029044
233,20.472170847475274
234,20.926683341316968
235,20.70504513602207
721,-2.2807773236767696
722,-4.840449143577719
723,-2.665387293023287
724,-4.695949532242939
725,-1.6692478588290596
726,-2.2416321494216517
727,-2.0753271252717466
728,-1.9583756649015687
11,0.0
2,2, 1, 2, 1,13, 0.00,60.00,Monday
6,20.5
7,54.0
8,8.4
9,121.0
10,1.1268409606251726
228,20.41383864594349
229,21.18488303548097
230,20.90232378718814
231,21.216112535042656
232,21.271067467243179
233,20.43327611882874
234,21.09785271605149
235,21.107457997765918
721,-2.093910713694638
722,-4.67391584055988
723,-2.48107277620582
724,-4.651010619031034
725,-1.485712604218804
726,-2.061687651475932
727,-1.9132689412342444
728,-1.7396365699198336
11,0.0
2,2, 1, 2, 1,14, 0.00,60.00,Monday
6,21.6
7,56.0
8,8.4
9,121.0
10,1.1209486760759429
228,21.43323238674569
229,22.186259065814356
230,21.75786821468796
231,22.373310139196606
232,22.26209667043232
233,21.336395723037595
234,22.069003105096816
235,21.744512700252778
721,-2.0512436698442335
722,-4.6813653721420629
723,-2.3955293860889297
724,-4.652930014188852
725,-1.4375264983938899
726,-2.046371974684919
727,-1.8624976695309528
728,-1.6003088469852128
11,0.0
2,2, 1, 2, 1,15, 0.00,60.00,Monday
6,21.3
7,49.0
8,8.9
9,111.0
10,1.123554432362637
228,21.125297013421155
229,22.109888696700428
230,21.453859123948829
231,22.23452643064939
232,23.080221144691778
233,21.291972317318505
234,22.06011019995562
235,21.623356697960085
721,-1.7804716895739897
722,-4.3423425888006019
723,-2.1539516024528679
724,-4.268148825371158
725,-1.215338347356283
726,-1.8153887089052013
727,-1.623886353242234
728,-1.415838362068051
11,0.0
2,2, 1, 2, 1,16, 0.00,60.00,Monday
6,19.5
7,58.0
8,8.6
9,106.0
10,1.1293525591531353
228,19.683269252280995
229,20.984639297568696
230,20.51062430105293
231,21.045917531970529
232,21.386002460515294
233,19.977143246131154
234,20.42059131288258
235,20.964964379181283
721,-1.8635336236638514
722,-4.388094553997407
723,-2.2703819419191815
724,-4.324719550680219
725,-1.1163198415619722
726,-1.8668664109738203
727,-1.6433517542911396
728,-1.4859614925188794
11,0.0
2,2, 1, 2, 1,17, 0.00,60.00,Monday
6,19.4
7,51.0
8,7.7
9,102.0
10,1.1317143145052589
228,19.987756985686567
229,21.26870459210535
230,20.307942641441487
231,21.07615923571216
232,20.81108654973136
233,19.621581468648178
234,20.791908927795075
235,20.32055329835987
721,-2.115275275564643
722,-4.72213150350671
723,-2.488453332098567
724,-4.684840938490481
725,-1.4881611214065136
726,-2.101977507148345
727,-1.954527560553615
728,-1.6657944596899975
11,0.0
2,2, 1, 2, 1,18, 0.00,60.00,Monday
6,18.7
7,62.0
8,8.1
9,103.0
10,1.1326599905376258
228,18.987583812518378
229,20.476794320568673
230,19.442477734409324
231,21.52471650764666
232,22.23661389457481
233,19.63648958191195
234,20.294228179998503
235,19.54596841210045
721,-2.104960960968709
722,-4.645859930440075
723,-2.561189075942209
724,-4.676140594276405
725,-1.6593027349417318
726,-2.2201395113714526
727,-1.9114690717320194
728,-1.8523994218958484
11,0.0
2,2, 1, 2, 1,19, 0.00,60.00,Monday
6,17.9
7,66.0
8,6.0
9,107.0
10,1.135575029975802
228,18.531901257228009
229,21.115266239533953
230,19.037728544246556
231,20.31359614960855
232,20.678078277281615
233,18.744553426466096
234,19.819560181649977
235,19.0416585417029
721,-2.272681518991469
722,-4.861648337467137
723,-2.7418987438744408
724,-4.536087567147189
725,-1.443082102625495
726,-2.199602504382634
727,-1.985820157549209
728,-2.0499780354519756
11,0.0
2,2, 1, 2, 1,20, 0.00,60.00,Monday
6,17.3
7,70.0
8,6.6
9,111.0
10,1.1375765768651048
228,18.459370247204576
229,19.763322102074534
230,18.18079013598301
231,20.116227345509914
232,19.926920372177479
233,17.60762794206036
234,19.963041284192394
235,18.379153287258754
721,-2.3875799106410819
722,-4.659732172581898
723,-2.851023848305849
724,-4.880543906816662
725,-1.7699483748830883
726,-2.382229846564301
727,-2.0826334769493215
728,-2.2010093101393606
11,0.0
2,2, 1, 2, 1,21, 0.00,60.00,Monday
6,16.6
7,72.0
8,5.5
9,119.0
10,1.140712714559372
228,19.678576005741748
229,21.325994038521509
230,17.797114804150789
231,19.429658844024894
232,19.450496353605986
233,17.097263831743093
234,20.03800666429039
235,18.09126568307445
721,-2.4258623977308759
722,-5.056425395259555
723,-3.063853973243296
724,-4.9360041997271308
725,-1.9522376732559806
726,-2.6188164346459468
727,-2.065051093518324
728,-2.3830080993616629
11,0.0
2,2, 1, 2, 1,22, 0.00,60.00,Monday
6,16.2
7,73.0
8,5.9
9,113.0
10,1.1423595563867464
228,16.917719998719976
229,21.993992092692307
230,17.589500992171197
231,19.573205985318937
232,18.39560995234116
233,16.65276999918389
234,19.057975607410527
235,18.00609814779979
721,-2.2220068320172317
722,-4.602233001291571
723,-3.182385761028705
724,-5.156395905068293
725,-2.087886764653529
726,-2.751559583948239
727,-2.0577097120454108
728,-2.4886732508321258
11,0.0
2,2, 1, 2, 1,23, 0.00,60.00,Monday
6,16.0
7,76.0
8,5.0
9,113.0
10,1.1425774087204457
228,18.512500054059374
229,19.883588748460853
230,17.915136812223463
231,19.553106138939243
232,18.72892233580447
233,16.50830093966926
234,19.769646387376797
235,18.132153913206265
721,-2.7884061253238867
722,-4.411881358741852
723,-3.2612565172468814
724,-5.134676482504879
725,-2.3344267226332477
726,-2.869974817973801
727,-2.2689627431756156
728,-2.5435137172025468
11,0.0
2,2, 1, 2, 1,24, 0.00,60.00,Monday
6,15.9
7,78.0
8,4.4
9,116.0
10,1.1419199787046302
228,16.927056527965776
229,20.756707702563454
230,18.57267468354976
231,20.64646399616498
232,19.90650472007995
233,16.88584159581395
234,18.40645803329739
235,18.998147977011013
721,-2.5017885372359678
722,-5.031811780263529
723,-3.1988537577347597
724,-5.141874311352598
725,-2.293393261072295
726,-2.9140744626051617
727,-2.1393201669556016
728,-2.5342771381669335
11,0.0
2,3, 1, 3, 1, 1, 0.00,60.00,Tuesday
6,16.0
7,82.0
8,3.4
9,121.0
10,1.1400576313492628
228,18.413871366035854
229,21.79698308318534
230,17.92231882649893
231,19.299230039266957
232,18.617142783345345
233,16.43620934359857
234,19.638402321853179
235,18.079385332973666
721,-2.8237791584557687
722,-4.779348385354365
723,-3.0471678633871406
724,-4.821357365071497
725,-2.074130058446969
726,-2.850576964282883
727,-2.4121019071167479
728,-2.3585097318128764
11,0.0
2,3, 1, 3, 1, 2, 0.00,60.00,Tuesday
6,14.6
7,98.0
8,6.9
9,119.0
10,1.1433322065183125
228,15.519937017505868
229,18.347866770342575
230,15.900574746898398
231,18.877985450248454
232,17.10531000933681
233,16.143559891534769
234,16.74345244207833
235,17.30436588559055
721,-2.544679087472687
722,-4.455410718864651
723,-3.1956781767542616
724,-5.201819279669391
725,-2.349569565985244
726,-2.9401165803824007
727,-2.1690001271644556
728,-2.5567561979176198
11,0.0
2,3, 1, 3, 1, 3, 0.00,60.00,Tuesday
6,14.4
7,98.0
8,4.6
9,135.0
10,1.1441386545157546
228,16.62301693143668
229,19.387266813568205
230,16.426640653319717
231,19.291986804273834
232,17.279484003212127
233,14.84895355026906
234,17.116193608922445
235,17.589376792841244
721,-3.0957973307319888
722,-5.453857122140521
723,-3.6490857052484308
724,-5.3131584587792199
725,-2.6621408317975425
726,-2.9897896559179606
727,-2.7297584878270038
728,-2.7411110741851596
11,0.0
2,3, 1, 3, 1, 4, 0.00,60.00,Tuesday
6,14.7
7,99.0
8,5.0
9,132.0
10,1.1419995586916668
228,15.861779999515559
229,19.00310545778765
230,16.12351516017152
231,17.99582224993565
232,17.089301177946866
233,15.812871750750724
234,18.01513093527047
235,16.817993112864344
721,-2.923760300674227
722,-5.165271348226323
723,-3.5604796950409605
724,-5.203454845910869
725,-2.6549033713054945
726,-3.277605834362693
727,-2.679854584623042
728,-2.692626772911038
11,0.0
2,3, 1, 3, 1, 5, 0.00,60.00,Tuesday
6,14.7
7,99.0
8,5.2
9,129.0
10,1.1418785122939764
228,15.831864080170624
229,20.235028494197438
230,16.747454112672899
231,17.985192385353817
232,17.516099096355839
233,15.143681630140235
234,18.032334777149573
235,17.239685013942287
721,-3.0859222564693478
722,-5.282292298668324
723,-3.650573282771806
724,-5.599898040460363
725,-2.7114056672415485
726,-3.104758131585054
727,-2.5190019309630866
728,-2.87253505846326
11,0.0
2,3, 1, 3, 1, 6, 0.00,60.00,Tuesday
6,14.0
7,99.0
8,7.1
9,128.0
10,1.1456736916555224
228,16.35541742773247
229,18.26546410192993
230,15.67252383254842
231,19.112250999850838
232,18.197096754163139
233,14.44223376995717
234,18.227918901475549
235,16.071657585563619
721,-3.119212206389578
722,-4.933558534447802
723,-3.5287791614408068
724,-5.6354832169516009
725,-2.6622767486957299
726,-3.257840704681161
727,-2.5264690724483009
728,-2.799810151346693
11,0.0
2,3, 1, 3, 1, 7, 0.00,60.00,Tuesday
6,13.6
7,99.0
8,5.1
9,130.0
10,1.148616083017274
228,15.44793360579962
229,19.927742312152515
230,16.142442290676777
231,18.017625677766799
232,17.069510580689319
233,14.227208901415404
234,17.26587997665982
235,17.034028162314184
721,-3.059358040685377
722,-5.5699080543147299
723,-3.824399896720739
724,-5.346724579244608
725,-2.567044808538801
726,-3.4431128351765749
727,-2.5137711148405739
728,-3.0913400012413128
11,0.0
2,3, 1, 3, 1, 8, 0.00,60.00,Tuesday
6,14.1
7,99.0
8,3.8
9,111.0
10,1.1472119665530174
228,16.288914933478723
229,17.69702275935591
230,16.961981959964449
231,21.030669968896917
232,17.7633050996781
233,15.510610477905477
234,18.13249730311077
235,17.789304084177787
721,-3.2692875576776725
722,-5.106881515103202
723,-3.7451238934094666
724,-5.709538993397583
725,-2.8084705828454785
726,-3.5219790572086606
727,-2.7236438292867706
728,-2.9001585705241936
11,0.0
2,3, 1, 3, 1, 9, 0.00,60.00,Tuesday
6,14.7
7,99.0
8,4.7
9,135.0
10,1.1445415330431635
228,15.656386023009555
229,17.619641249182924
230,17.08358045229692
231,18.166569724331749
232,17.56434897933021
233,15.126400885330427
234,17.633692124238224
235,17.907646080787776
721,-3.1117081617242845
722,-5.786153059025358
723,-3.5558792006306394
724,-4.821855245894333
725,-2.6630466549435627
726,-3.2693750772454339
727,-2.559403323873013
728,-2.737804010958565
11,0.0
2,3, 1, 3, 1,10, 0.00,60.00,Tuesday
6,14.8
7,99.0
8,3.0
9,123.0
10,1.1440143264673784
228,16.41829527585348
229,20.078451442698428
230,17.29085720633375
231,19.18037263737054
232,17.940762414496129
233,15.313350356534653
234,17.787919473676888
235,17.989681573620346
721,-3.2272876084984216
722,-5.818794381500472
723,-3.5166599339960147
724,-5.657003796567627
725,-2.6850445284488906
726,-3.332499980926125
727,-2.6527815880182827
728,-2.695778467195224
11,0.0
2,3, 1, 3, 1,11, 0.00,60.00,Tuesday
6,14.9
7,99.0
8,2.4
9,136.0
10,1.1434867491405248
228,17.493156745688859
229,18.752234621496535
230,16.561238255523145
231,18.518284139882668
232,17.237368444378779
233,15.340957335085517
234,18.753462385356383
235,17.6446147202696
721,-3.080302921762048
722,-5.097407637273454
723,-3.461950701868875
724,-5.36456748682693
725,-2.5893091757916419
726,-3.2940227495782126
727,-2.620221016532072
728,-2.65609626987277
11,0.0
2,3, 1, 3, 1,12, 0.00,60.00,Tuesday
6,15.7
7,98.0
8,3.9
9,127.0
10,1.1395882112224126
228,16.717877328018333
229,18.17050150738808
230,16.8998706978695
231,18.037922357020397
232,17.581719829877167
233,15.986761243123825
234,18.171588831702537
235,17.719747501998226
721,-2.855870331246263
722,-5.48659208271664
723,-3.616374029984631
724,-5.562176219841394
725,-2.669579981982614
726,-3.2705721153757687
727,-2.4308374566685946
728,-2.6941586144790676
11,0.0
2,3, 1, 3, 1,13, 0.00,60.00,Tuesday
6,16.3
7,91.0
8,3.5
9,82.0
10,1.1372431040666014
228,17.043015794734467
229,19.860374013123818
230,18.12673591980161
231,18.78058029905717
232,18.469620796196407
233,17.803054538534246
234,19.062525946728873