Program Version,EnergyPlus, Version 8.7.0-78a111df4a, YMD=2018.01.28 00:34
1,5,Environment Title[],Latitude[deg],Longitude[deg],Time Zone[],Elevation[m]
2,6,Day of Simulation[],Month[],Day of Month[],DST Indicator[1=yes 0=no],Hour[],StartMinute[],EndMinute[],DayType
3,3,Cumulative Day of Simulation[],Month[],Day of Month[],DST Indicator[1=yes 0=no],DayType  ! When Daily Report Variables Requested
4,2,Cumulative Days of Simulation[],Month[]  ! When Monthly Report Variables Requested
5,1,Cumulative Days of Simulation[] ! When Run Period Report Variables Requested
6,1,Environment,Site Outdoor Air Drybulb Temperature [C] !TimeStep
7,1,Environment,Site Outdoor Air Relative Humidity [%] !TimeStep
8,1,Environment,Site Wind Speed [m/s] !TimeStep
9,1,Environment,Site Wind Direction [deg] !TimeStep
10,1,Environment,Site Outdoor Air Density [kg/m3] !TimeStep
11,1,Environment,Site Rain Status [] !TimeStep
228,1,BLOCK1:ZONE4,Zone Mean Air Temperature [C] !TimeStep,ON
229,1,BLOCK1:ZONE3,Zone Mean Air Temperature [C] !TimeStep,ON
230,1,BLOCK1:ZONE7,Zone Mean Air Temperature [C] !TimeStep,ON
231,1,BLOCK1:ZONE6,Zone Mean Air Temperature [C] !TimeStep,ON
232,1,BLOCK1:ZONE5,Zone Mean Air Temperature [C] !TimeStep,ON
233,1,BLOCK1:ZONE1,Zone Mean Air Temperature [C] !TimeStep,ON
234,1,BLOCK1:ZONE2,Zone Mean Air Temperature [C] !TimeStep,ON
235,1,BLOCK6:ZONE1,Zone Mean Air Temperature [C] !TimeStep,ON
721,1,PEOPLE BLOCK1:ZONE4,Zone Thermal Comfort Fanger Model PMV [] !TimeStep,ON
722,1,PEOPLE BLOCK1:ZONE3,Zone Thermal Comfort Fanger Model PMV [] !TimeStep,ON
723,1,PEOPLE BLOCK1:ZONE7,Zone Thermal Comfort Fanger Model PMV [] !TimeStep,ON
724,1,PEOPLE BLOCK1:ZONE6,Zone Thermal Comfort Fanger Model PMV [] !TimeStep,ON
725,1,PEOPLE BLOCK1:ZONE5,Zone Thermal Comfort Fanger Model PMV [] !TimeStep,ON
726,1,PEOPLE BLOCK1:ZONE1,Zone Thermal Comfort Fanger Model PMV [] !TimeStep,ON
727,1,PEOPLE BLOCK1:ZONE2,Zone Thermal Comfort Fanger Model PMV [] !TimeStep,ON
728,1,PEOPLE BLOCK6:ZONE1,Zone Thermal Comfort Fanger Model PMV [] !TimeStep,ON
End of Data Dictionary
1,SANTA MARIA, -31.41, -52.70,  -3.00, 464.00
2,1, 1, 1, 1, 1, 0.00,60.00,Sunday
6,16.8
7,91.0
8,5.4
9,123.0
10,1.1359486530452514
228,17.177996271480717
229,19.520657311482315
230,17.75954933418757
231,19.499296868393903
232,18.666773752768074
233,16.988976946671018
234,17.6725750033194
235,18.352289161954198
721,-1.7993950579474943
722,-4.724101807064606
723,-1.5875862984004697
724,-4.657582991906697
725,-1.1656474034731848
726,-1.4576259562615453
727,-1.4962527794817245
728,-1.2038861713575496
11,0.0
2,1, 1, 1, 1, 2, 0.00,60.00,Sunday
6,16.5
7,92.0
8,4.6
9,135.0
10,1.1369342048591405
228,17.687008900730274
229,20.89614668313623
230,17.944706640177757
231,21.531403802194846
232,19.72039939995831
233,17.893420659862053
234,19.435540253625385
235,18.031113807275067
721,-2.553047748097216
722,-4.924402888619706
723,-2.8339018304946226
724,-4.888569304197433
725,-2.0218081973831909
726,-2.4395133405541475
727,-2.303788155998079
728,-2.186232240324158
11,0.0
2,1, 1, 1, 1, 3, 0.00,60.00,Sunday
6,16.6
7,92.0
8,4.6
9,143.0
10,1.1365295026141374
228,18.276962992491943
229,20.733594463897938
230,18.09589363611431
231,21.29618319575864
232,19.409276265681205
233,17.748848615316875
234,18.752073180727029
235,18.215719968684703
721,-2.491258196634682
722,-4.520998113098243
723,-2.84751582144737
724,-4.289324395242196
725,-1.859171886984924
726,-2.311517706141583
727,-1.9808065985390496
728,-2.30661621630858
11,0.0
2,1, 1, 1, 1, 4, 0.00,60.00,Sunday
6,16.5
7,94.0
8,3.1
9,152.0
10,1.1372042989547578
228,18.07039448840257
229,19.911369434917689
230,19.72423282625727
231,18.940406612452415
232,20.201162272126543
233,17.44801269006351
234,19.596523143127717
235,19.85397745644586
721,-2.397225818665879
722,-4.572914021027326
723,-2.848023527557847
724,-4.358887519201999
725,-1.9470015959352208
726,-2.3695877414269046
727,-2.1314228580132417
728,-2.3018397516399764
11,0.0
2,1, 1, 1, 1, 5, 0.00,60.00,Sunday
6,16.3
7,94.0
8,4.8
9,144.0
10,1.137777485189455
228,18.700391294536087
229,19.840261741239986
230,17.714916831644687
231,20.699035694827175
232,20.012991517998715
233,16.675042220179156
234,20.108690136209107
235,18.394512165552095
721,-2.4501420191202927
722,-4.821933689083634
723,-2.4906892091580516
724,-5.071252091156528
725,-1.8091195731645305
726,-2.4528844015316144
727,-1.9840147555613453
728,-1.967374996793575
11,0.0
2,1, 1, 1, 1, 6, 0.00,60.00,Sunday
6,16.4
7,94.0
8,4.7
9,146.0
10,1.1376115044377353
228,18.244566529411715
229,19.371659673732755
230,18.126529174343813
231,19.085976537653978
232,19.126205719161037
233,16.992819730450984
234,19.37698070827002
235,18.503413764794247
721,-2.349979121405417
722,-4.864945535105095
723,-2.9772161540265285
724,-4.569889554963202
725,-1.8751835848579788
726,-2.642724953471258
727,-1.8962437215775843
728,-2.3033502165288768
11,0.0
2,1, 1, 1, 1, 7, 0.00,60.00,Sunday
6,17.2
7,93.0
8,6.8
9,153.0
10,1.1340959510640024
228,19.10523991794679
229,20.152583180589454
230,17.98492471460017
231,19.769006853011228
232,19.015566179002876
233,17.62197807849492
234,18.29642204887037
235,18.027933752869616
721,-2.4458272851134277
722,-5.015859320730067
723,-2.909586585010368
724,-5.061805555204753
725,-2.0421447267416554
726,-2.595729852789568
727,-2.0513332908718455
728,-2.285542429074768
11,0.0
2,1, 1, 1, 1, 8, 0.00,60.00,Sunday
6,18.2
7,84.0
8,7.7
9,140.0
10,1.1316304978873615
228,18.60318689598821
229,21.313303862284927
230,18.50670993038092
231,20.911719104307158
232,19.59779892171108
233,18.329597807928253
234,19.106095584644426
235,18.49865803581326
721,-2.266617613165858
722,-4.787557919183115
723,-2.9330194967773846
724,-4.866724312046944
725,-1.9961479707350332
726,-2.4411682157578826
727,-2.259375016356515
728,-2.348409783641593
11,0.0
2,1, 1, 1, 1, 9, 0.00,60.00,Sunday
6,19.4
7,75.0
8,7.9
9,144.0
10,1.128250990973346
228,19.49802538508089
229,20.76807379062821
230,19.80895629547016
231,20.70873494273699
232,20.192505938834989
233,19.611726656246643
234,20.382306790744115
235,19.60020364333157
721,-2.3391285053496277
722,-4.441211361302913
723,-2.8099909330730536
724,-4.53044001790475
725,-1.8154369304496139
726,-2.299728896355455
727,-2.109917404007998
728,-2.206286623622526
11,0.0
2,1, 1, 1, 1,10, 0.00,60.00,Sunday
6,21.6
7,67.0
8,8.7
9,133.0
10,1.1193658090518289
228,21.309874271205346
229,21.68343022773284
230,21.561975921425174
231,21.70061740032828
232,21.911037066721968
233,21.527736625327799
234,21.487537526938618
235,21.432620567980068
721,-2.1267193566721169
722,-4.618809039816788
723,-2.481672918422215
724,-4.60983476424351
725,-1.6068363926208996
726,-2.023743473372846
727,-1.8504890773706162
728,-1.9003501104738619
11,0.0
2,1, 1, 1, 1,11, 0.00,60.00,Sunday
6,21.2
7,67.0
8,8.9
9,126.0
10,1.1216193279002236
228,21.090378512139929
229,22.107187347097605
230,21.532547599652209
231,21.908921701997636
232,22.145788798458363
233,21.21159167626724
234,21.692110225492049
235,21.51322732373134
721,-1.7102521792417225
722,-4.331097206471116
723,-2.0324980590686216
724,-4.2951227979152659
725,-1.2123414675764222
726,-1.6095566114900269
727,-1.6052181141682598
728,-1.4251533233330303
11,0.0
2,1, 1, 1, 1,12, 0.00,60.00,Sunday
6,22.0
7,59.0
8,9.1
9,127.0
10,1.1198415694503799
228,21.868807667801833
229,22.584191596499463
230,22.45095668076504
231,22.69336893187759
232,22.839048117385155
233,21.953395219817538
234,22.533028075475938
235,22.321321439877136
721,-1.712014352384706
722,-4.200266027077358
723,-1.9931963531919995
724,-4.22350541836165
725,-1.0792658678209837
726,-1.6395691832561897
727,-1.549017686141406
728,-1.322318036736875
11,0.0
2,1, 1, 1, 1,13, 0.00,60.00,Sunday
6,23.9
7,54.0
8,8.6
9,116.0
10,1.1113661725305675
228,23.046562232304504
229,24.12582187869194
230,23.858137458403307
231,24.20327797359316
232,24.221177665929429
233,23.52965085858937
234,24.506992004465596
235,23.7921351146722
721,-1.5519124056381966
722,-4.0721759349335049
723,-1.7782702975738703
724,-4.003072809060935
725,-0.873734887367708
726,-1.4944673119418617
727,-1.3829539060910013
728,-1.1081847455871006
11,0.0
2,1, 1, 1, 1,14, 0.00,60.00,Sunday
6,21.0
7,66.0
8,9.0
9,113.0
10,1.1220914658639743
228,21.24608458552136
229,22.445079736743769
230,21.862423378710014
231,22.644476275161219
232,22.509166922866009
233,21.1968761343916
234,22.022702921565853
235,21.99106093953452
721,-1.2712785598307955
722,-3.5866807556127466
723,-1.4154335571381905
724,-3.5262871941461575
725,-0.6005854434958174
726,-1.1479820884566623
727,-0.9500212688208685
728,-0.7390168431954651
11,0.0
2,1, 1, 1, 1,15, 0.00,60.00,Sunday
6,20.4
7,66.0
8,8.3
9,115.0
10,1.1252109108450977
228,21.66964635287976
229,21.829902327830327
230,21.11681929678398
231,21.87505630164194
232,21.939369951873588
233,20.649467531552817
234,21.40389113544685
235,21.51465534402622
721,-1.5750182747168876
722,-4.050406697463221
723,-1.8466011422104583
724,-3.9538100470685588
725,-0.9386585545228832
726,-1.5708375365814809
727,-1.4110557173041845
728,-1.1116120945481448
11,0.0
2,1, 1, 1, 1,16, 0.00,60.00,Sunday
6,20.7
7,67.0
8,9.1
9,121.0
10,1.1230664363386743
228,20.999357842105967
229,21.707013672545967
230,21.040370661557068
231,22.28758953487262
232,22.25903633651513
233,21.085977438347127
234,21.277986686504638
235,21.097106935206008
721,-1.4988625580259679
722,-4.226909157609
723,-2.0480934776515049
724,-4.176351252163897
725,-1.101600373114464
726,-1.7006872192368068
727,-1.5424038843020057
728,-1.2619522742975507
11,0.0
2,1, 1, 1, 1,17, 0.00,60.00,Sunday
6,18.2
7,82.0
8,8.7
9,122.0
10,1.131652122282624
228,19.291920722173236
229,20.598590378270104
230,19.651765884914594
231,21.07700814235996
232,22.1202044897959
233,18.47582005650182
234,20.56589363897382
235,19.435806648984966
721,-1.6264052100124403
722,-4.256719146085558
723,-2.0852525912949457
724,-4.0514803314413119
725,-1.1147216399847942
726,-1.6278672330801492
727,-1.5635755167923598
728,-1.401339757674872
11,0.0
2,1, 1, 1, 1,18, 0.00,60.00,Sunday
6,18.8
7,74.0
8,8.9
9,129.0
10,1.1303761914746822
228,19.488398189088089
229,20.70406649506632
230,19.568084024010817
231,20.902589192422874
232,20.783988750046008
233,19.00857233350589
234,20.152056679142459
235,19.84973541341342
721,-1.962647852032665
722,-4.55709579568932
723,-2.4133210641609668
724,-4.382953352548181
725,-1.158251998720267
726,-2.138099464286847
727,-1.7016254096548982
728,-1.8013402735542946
11,0.0
2,1, 1, 1, 1,19, 0.00,60.00,Sunday
6,17.6
7,77.0
8,7.5
9,118.0
10,1.1365542858182583
228,18.815301939199473
229,21.24090723553307
230,19.267352295474095
231,20.307688887201829
232,21.953533941019047
233,18.426030997857568
234,20.56013164045755
235,19.285690211283279
721,-1.9892953898124042
722,-4.55143420127564
723,-2.48269966176928
724,-4.458933857111745
725,-1.501991235085598
726,-2.1038460684690389
727,-1.8155033083458912
728,-1.803804714610138
11,0.0
2,1, 1, 1, 1,20, 0.00,60.00,Sunday
6,16.7
7,80.0
8,8.0
9,122.0
10,1.140429905989436
228,18.260223282450107
229,19.42356789749288
230,18.21514062633238
231,19.02659605740223
232,20.88565013561884
233,17.162371343632488
234,19.596888359120933
235,18.383518879484265
721,-2.173908270997243
722,-4.427150476263094
723,-2.596121145344782
724,-4.677831602442399
725,-1.3435144322492827
726,-2.2620250832136254
727,-1.7707663629712687
728,-1.9929782908585439
11,0.0
2,1, 1, 1, 1,21, 0.00,60.00,Sunday
6,16.2
7,79.0
8,7.9
9,119.0
10,1.1435576207758496
228,17.233443301946968
229,19.744130410341087
230,17.551751773742987
231,20.77012067857182
232,21.746508113016796
233,16.595019549621865
234,18.66154067718125
235,18.088656541258787
721,-2.3318809847087786
722,-4.982430634590649
723,-2.881982735249462
724,-5.078337236712757
725,-1.6053909055653498
726,-2.5540106142236445
727,-1.9792282781996756
728,-2.2531294130246097
11,0.0
2,1, 1, 1, 1,22, 0.00,60.00,Sunday
6,15.9
7,79.0
8,7.2
9,116.0
10,1.145439033722447
228,17.075769289363369
229,20.060384376024979
230,18.132008536182103
231,19.974209067017204
232,18.735299809501809
233,17.255381830267817
234,18.329362172346625
235,18.547044318958315
721,-2.5960526450849228
722,-4.937592671633777
723,-3.090103067679311
724,-4.606113294159448
725,-1.484988994555894
726,-2.7240659302204648
727,-2.2075559561201518
728,-2.383572691126462
11,0.0
2,1, 1, 1, 1,23, 0.00,60.00,Sunday
6,15.8
7,83.0
8,6.1
9,112.0
10,1.1451998362429703
228,16.91516828602335
229,18.723117958125419
230,17.2934413121744
231,19.246643419661113
232,18.774266581282885
233,16.346542392851334
234,18.811556215959855
235,17.962463689428714
721,-2.6795368304360238
722,-4.869981197154721
723,-3.001442116057853
724,-4.870582919670578
725,-2.1236355397726029
726,-2.633860241390259
727,-2.3116451511832389
728,-2.3340160661412678
11,0.0
2,1, 1, 1, 1,24, 0.00,60.00,Sunday
6,15.6
7,85.0
8,6.1
9,115.0
10,1.1455528146863357
228,16.505651086974276
229,19.534169086510905
230,16.767573039175333
231,19.70492609040417
232,18.76348980711154
233,16.168222407118305
234,18.11558228295374
235,17.662757253800075
721,-2.734529337690015
722,-5.276769725459165
723,-3.210612729461404
724,-5.095493693630115
725,-2.1582518907860086
726,-2.8280332669166245
727,-2.2331509539010647
728,-2.486605202140716
11,0.0
2,2, 1, 2, 1, 1, 0.00,60.00,Monday
6,15.6
7,86.0
8,5.7
9,117.0
10,1.1447355857911915
228,18.02802480404548
229,18.194532289491318
230,17.92022987698413
231,18.890772854619415
232,18.472067220061363
233,17.482323124450987
234,18.836267863636807
235,17.95417791373116
721,-2.8466494696529658
722,-5.054061297727667
723,-3.352471600029157
724,-4.976391991766293
725,-2.192226522641932
726,-2.8923344549133658
727,-2.387003956162348
728,-2.57660615185172
11,0.0
2,2, 1, 2, 1, 2, 0.00,60.00,Monday
6,15.3
7,86.0
8,5.4
9,117.0
10,1.1456732982421088
228,16.383483613678828
229,19.679814582939437
230,17.779771379820926
231,19.93543278981005
232,18.897065171398255
233,16.5540036183425
234,17.976170742195419
235,18.001671808710534
721,-2.577359027725827
722,-5.474691332442649
723,-3.1186826176061106
724,-5.2381550331211479
725,-2.27399235331302
726,-2.6522833253481967
727,-2.2652291044002594
728,-2.5279297550333674
11,0.0
2,2, 1, 2, 1, 3, 0.00,60.00,Monday
6,15.1
7,86.0
8,5.0
9,125.0
10,1.1463365356557165
228,16.74146980703852
229,20.919357239828448
230,17.809592696108316
231,20.021481319255867
232,18.736543647903255
233,16.26311528987194
234,18.343982332304287
235,17.974350167401533
721,-2.9284863562426075
722,-5.064916909845025
723,-3.1761720014095089
724,-4.95724623258401
725,-2.227424598663014
726,-2.860621309605943
727,-2.456098827867784
728,-2.543513201868906
11,0.0
2,2, 1, 2, 1, 4, 0.00,60.00,Monday
6,15.1
7,87.0
8,5.7
9,129.0
10,1.1457664171164348
228,16.276821042355008
229,20.527636689302505
230,17.184159601391344
231,19.73848623242913
232,18.196887255544529
233,16.140497525230566
234,17.60228581246197
235,18.0404902807884
721,-2.8924672404836606
722,-4.709793952779512
723,-3.1957118096293848
724,-4.949150296746096
725,-2.289430520845775
726,-2.947825477853888
727,-2.4058519572305969
728,-2.571373525615184
11,0.0
2,2, 1, 2, 1, 5, 0.00,60.00,Monday
6,15.1
7,86.0
8,5.0
9,129.0
10,1.1463365356557165
228,17.072935970414503
229,19.87016726899989
230,17.544591615949277
231,20.157345050094795
232,18.122529765582287
233,16.131986445049145
234,17.91099986194441
235,17.973394278861595
721,-3.002670444495795
722,-4.83429521884209
723,-3.352001851873223
724,-5.049761077900283
725,-2.423955201065128
726,-2.991740580105913
727,-2.5708508156750526
728,-2.5777648361633065
11,0.0
2,2, 1, 2, 1, 6, 0.00,60.00,Monday
6,15.0
7,85.0
8,6.6
9,128.0
10,1.1470551283110878
228,15.88070734316141
229,20.395071352325375
230,16.33145874601724
231,19.23762558609068
232,17.828894106665666
233,15.293127074424249
234,17.067839213570836
235,17.56369585863373
721,-2.8741934026076816
722,-5.04059403555469
723,-3.2966143533822116
724,-4.936073319563415
725,-2.4683705291267228
726,-3.020662660270698
727,-2.529734877253538
728,-2.608234073768742
11,0.0
2,2, 1, 2, 1, 7, 0.00,60.00,Monday
6,15.6
7,83.0
8,6.0
9,124.0
10,1.1447738902722818
228,16.383142195055773
229,18.738033388926345
230,17.922901018640123
231,19.14410500800563
232,18.23409994044245
233,16.078200069361825
234,17.681533316239073
235,17.962858345139844
721,-3.1286832655713767
722,-4.911963941519275
723,-3.5964901061232887
724,-5.24271539648924
725,-2.538441069331215
726,-3.2087819816961016
727,-2.7190721848788494
728,-2.71264191407127
11,0.0
2,2, 1, 2, 1, 8, 0.00,60.00,Monday
6,16.5
7,78.0
8,6.6
9,118.0
10,1.1416597253942587
228,16.908748076149569
229,20.59832010109254
230,17.367958840218127
231,19.569783418637568
232,18.225496368289176
233,17.088402610722619
234,17.910176488957896
235,18.06381664823256
721,-3.0342090913431
722,-5.414355603743378
723,-3.246248858422291
724,-5.281056515500328
725,-2.4222090198594325
726,-3.053709997824446
727,-2.6024028532282355
728,-2.611186094298632
11,0.0
2,2, 1, 2, 1, 9, 0.00,60.00,Monday
6,17.5
7,73.0
8,8.5
9,121.0
10,1.1380214191527869
228,17.904766854458978
229,19.789796762092217
230,18.17781726602508
231,20.648641548815
232,18.75213067622987
233,17.809361256296144
234,18.536504042042979
235,18.05570740613841
721,-2.9206410934276745
722,-4.873561434475194
723,-3.3516551632304725
724,-5.164670608273748
725,-2.3642055751306225
726,-2.834764479127047
727,-2.5599807527321247
728,-2.550488667350468
11,0.0
2,2, 1, 2, 1,10, 0.00,60.00,Monday
6,18.5
7,69.0
8,7.8
9,115.0
10,1.1340046135858649
228,18.571634344097896
229,21.030805818108907
230,18.9037916268634
231,21.021683803491045
232,20.298853748669058
233,18.642439303834498
234,19.424674663533904
235,18.887087871620186
721,-2.7001560701848925
722,-5.114003743354643
723,-3.155080731369563
724,-4.844491155184176
725,-2.196398190206416
726,-2.667490791928765
727,-2.4342663439870777
728,-2.5014946334879735
11,0.0
2,2, 1, 2, 1,11, 0.00,60.00,Monday
6,19.8
7,57.0
8,7.5
9,103.0
10,1.1305553742158419
228,19.717389950921644
229,20.581149578059404
230,19.98879530115629
231,20.932385548394426
232,20.527704817087164
233,19.745798892725206
234,20.130214191407864
235,19.94151860727794
721,-2.518836809209737
722,-4.73831141378095
723,-2.9288529201359636
724,-4.718850282003916
725,-1.787486592896252
726,-2.457932975002031
727,-2.243727627917741
728,-2.2384646635502269
11,0.0
2,2, 1, 2, 1,12, 0.00,60.00,Monday
6,20.5
7,56.0
8,7.3
9,119.0
10,1.1270991003695217
228,20.326311153344116
229,21.135044875725485
230,20.667246969355653
231,21.332491644220015
232,21.19846765540838
233,20.477874293539445
234,21.00381384534669
235,20.692984110393686
721,-2.285514924348773
722,-4.895106979167107
723,-2.673947370795594
724,-4.765539860682285
725,-1.6814528553302193
726,-2.2412419635462617
727,-2.112351195584983
728,-1.965014384555404
11,0.0
2,2, 1, 2, 1,13, 0.00,60.00,Monday
6,20.5
7,54.0
8,8.4
9,121.0
10,1.1268409606251726
228,20.389650856782045
229,21.214747586039136
230,20.70335804486737
231,21.30587923351122
232,21.289383054305924
233,20.515563052929516
234,21.213871264496594
235,20.784997679550487
721,-2.1092847441375786
722,-4.729930812105927
723,-2.473728320400511
724,-4.646330227526375
725,-1.4887417357262907
726,-2.0593252122988328
727,-1.9138374744326073
728,-1.7375551695468972
11,0.0
2,2, 1, 2, 1,14, 0.00,60.00,Monday
6,21.6
7,56.0
8,8.4
9,121.0
10,1.1209486760759429
228,21.259873538627603
229,22.23931509942134
230,21.686275787580735
231,22.300652406396627
232,22.032961020069153
233,21.54509667049131
234,22.27315867280179
235,21.713149444403308
721,-2.060810248891526
722,-4.693284873772028
723,-2.441906658852372
724,-4.636744876910601
725,-1.4288232730843203
726,-2.028569303206021
727,-1.8531157147487576
728,-1.6715857484304504
11,0.0
2,2, 1, 2, 1,15, 0.00,60.00,Monday
6,21.3
7,49.0
8,8.9
9,111.0
10,1.123554432362637
228,21.184019653315425
229,22.29079304604782
230,21.80800999232809
231,22.494794055402588
232,22.473741534678497
233,21.312070581209704
234,22.065646623946625
235,21.849923930749925
721,-1.8192429588021948
722,-4.348088369035879
723,-2.166325479367203
724,-4.3004079055763448
725,-1.2508921505889124
726,-1.7712677318874395
727,-1.5950319515091128
728,-1.422337561969878
11,0.0
2,2, 1, 2, 1,16, 0.00,60.00,Monday
6,19.5
7,58.0
8,8.6
9,106.0
10,1.1293525591531353
228,19.70076041697601
229,21.199734918649658
230,20.15697664281891
231,21.153646893366088
232,20.950551540923123
233,19.741175436619625
234,20.40372538905528
235,20.58361597033838
721,-1.858513752133814
722,-4.322930565340325
723,-2.1676028943838476
724,-4.22621656960142
725,-1.2212011468076086
726,-1.837607972083818
727,-1.6420750770138768
728,-1.412794693788586
11,0.0
2,2, 1, 2, 1,17, 0.00,60.00,Monday
6,19.4
7,51.0
8,7.7
9,102.0
10,1.1317143145052589
228,19.78614021578464
229,20.80213667640674
230,19.83471812895367
231,20.8840139851413
232,20.917100434073928
233,19.68559278939131
234,20.15936086617652
235,20.024583175966506
721,-2.116338463196454
722,-4.671333086390886
723,-2.563562627580905
724,-4.656910437470178
725,-1.567027436674398
726,-2.143765613157508
727,-1.9686841694826552
728,-1.7396995425949247
11,0.0
2,2, 1, 2, 1,18, 0.00,60.00,Monday
6,18.7
7,62.0
8,8.1
9,103.0
10,1.1326599905376258
228,19.1036450474642
229,20.832505244712534
230,19.76679398464396
231,21.18102330580532
232,20.647947421731709
233,19.10609417361573
234,20.427901946043453
235,20.041712015072365
721,-2.1502960440866398
722,-4.818067288034134
723,-2.6835987259884779
724,-4.765832474162385
725,-1.6487543084193182
726,-2.208845364254636
727,-2.0470004612889887
728,-1.9251278510141384
11,0.0
2,2, 1, 2, 1,19, 0.00,60.00,Monday
6,17.9
7,66.0
8,6.0
9,107.0
10,1.135575029975802
228,18.809161518748949
229,20.413870283449567
230,18.762615202081624
231,20.97926615434378
232,20.491402533181338
233,18.548736108043369
234,19.891084925409098
235,19.00480958461621
721,-2.2568290466907565
722,-4.792368939447277
723,-2.683024371273385
724,-4.67051360203576
725,-1.758982063656769
726,-2.3034936103927405
727,-1.9832984291731255
728,-1.9608649885183945
11,0.0
2,2, 1, 2, 1,20, 0.00,60.00,Monday
6,17.3
7,70.0
8,6.6
9,111.0
10,1.1375765768651048
228,18.002707336686706
229,21.525194618858565
230,18.25424810887873
231,20.10686318818266
232,19.3789312863225
233,17.99124436188436
234,19.113356367551189
235,18.515729699986019
721,-2.3386622450623317
722,-4.883664541788371
723,-2.913512341945085
724,-4.690228773085545
725,-1.8150238692790502
726,-2.4247645037071718
727,-2.0808232588555146
728,-2.202921306447042
11,0.0
2,2, 1, 2, 1,21, 0.00,60.00,Monday
6,16.6
7,72.0
8,5.5
9,119.0
10,1.140712714559372
228,18.095637578773034
229,20.020166063684266
230,18.049779835167877
231,22.404614305277364
232,19.603722938802759
233,17.16013964687673
234,20.01750190037231
235,18.29291406949463
721,-2.5179902877040436
722,-4.54837991577851
723,-3.050418548095912
724,-4.941685184776875
725,-2.0659176670174359
726,-2.547019751064469
727,-2.236935840778667
728,-2.3488657254070706
11,0.0
2,2, 1, 2, 1,22, 0.00,60.00,Monday
6,16.2
7,73.0
8,5.9
9,113.0
10,1.1423595563867464
228,17.443765032023369
229,21.23573227270575
230,18.898630034919067
231,21.67355753986486
232,19.43670841172104
233,17.95232081035179
234,18.76015412053338
235,18.516213097604088
721,-2.5367586525788048
722,-4.995723196897112
723,-3.1244255386139057
724,-4.269316708530283
725,-2.062732517727651
726,-2.7393112607603755
727,-2.0755260584012875
728,-2.438709716711527
11,0.0
2,2, 1, 2, 1,23, 0.00,60.00,Monday
6,16.0
7,76.0
8,5.0
9,113.0
10,1.1425774087204457
228,17.39238913797622
229,18.860152719010384
230,17.906587986714926
231,18.81362887149087
232,18.681410722692744
233,17.12288295768149
234,18.969962072365946
235,18.0661871391033
721,-2.6977921791907817
722,-4.645160202476021
723,-2.9541265557105729
724,-4.481240592395084
725,-2.1212488746367796
726,-2.6055807705300886
727,-2.3321018859549804
728,-2.4193494467248395
11,0.0
2,2, 1, 2, 1,24, 0.00,60.00,Monday
6,15.9
7,78.0
8,4.4
9,116.0
10,1.1419199787046302
228,16.913454006110919
229,19.689205825872525
230,17.534532119198606
231,20.14410744043419
232,19.947483477826855
233,16.333682074436838
234,18.880745202444044
235,18.042560079054075
721,-2.728626389830769
722,-5.353187731108023
723,-3.187367069732519
724,-5.337867889757833
725,-2.2958045077112056
726,-2.776822301360942
727,-2.306038854810422
728,-2.53616987634535
11,0.0
2,3, 1, 3, 1, 1, 0.00,60.00,Tuesday
6,16.0
7,82.0
8,3.4
9,121.0
10,1.1400576313492628
228,17.107818143918466
229,20.067977552922558
230,18.1901151094237
231,19.370569826103038
232,19.344549220601598
233,16.89845594977813
234,19.18008250252391
235,18.02016490503288
721,-2.841639914405203
722,-5.1174544953578
723,-3.2820216067611684
724,-4.95252182865844
725,-2.070327671953184
726,-2.948213453416277
727,-2.3290024104493964
728,-2.5622389387774469
11,0.0
2,3, 1, 3, 1, 2, 0.00,60.00,Tuesday
6,14.6
7,98.0
8,6.9
9,119.0
10,1.1433322065183125
228,16.214245788228383
229,18.396785322180535
230,16.90218099562853
231,18.45190442874756
232,19.069550641012755
233,15.02551312481126
234,18.32168271180076
235,17.864257414873089
721,-2.8105068359789548
722,-4.992438640391144
723,-3.141385262660139
724,-5.1724250285612929
725,-2.210884143525459
726,-2.8426700614809166
727,-2.2651384702362318
728,-2.575760173088928
11,0.0
2,3, 1, 3, 1, 3, 0.00,60.00,Tuesday
6,14.4
7,98.0
8,4.6
9,135.0
10,1.1441386545157546
228,17.058423281571238
229,17.441805922283444
230,16.77320475469317
231,20.85181220599589
232,18.60645346786579
233,15.044479120209222
234,18.356548500526558
235,17.811893272350379
721,-2.9797539072037697
722,-5.46194574946802
723,-3.411212791509505
724,-5.423086397040419
725,-2.273141751473208
726,-3.202551176926845
727,-2.423535825782437
728,-2.620004965976858
11,0.0
2,3, 1, 3, 1, 4, 0.00,60.00,Tuesday
6,14.7
7,99.0
8,5.0
9,132.0
10,1.1419995586916668
228,16.225959071349558
229,19.194688786706214
230,17.232953983576637
231,22.056634532551276
232,17.94754162422118
233,16.49074691057894
234,17.78916259707234
235,17.992262326766644
721,-2.849543741471964
722,-5.782163482905483
723,-3.4614590854913285
724,-4.727406799787562
725,-2.374034964010898
726,-3.237079709477063
727,-2.4300525321658754
728,-2.638747654365696
11,0.0
2,3, 1, 3, 1, 5, 0.00,60.00,Tuesday
6,14.7
7,99.0
8,5.2
9,129.0
10,1.1418785122939764
228,16.14464999673539
229,19.239086794344379
230,16.24678459773905
231,18.69596313314291
232,17.746517478981408
233,15.56344528681601
234,18.4977880303491
235,17.191287472425864
721,-3.0239251537613556
722,-5.273758379926746
723,-3.368334597338882
724,-4.369866228276274
725,-2.515882971367312
726,-2.9609905588732436
727,-2.54706970626794
728,-2.6031919319550775
11,0.0
2,3, 1, 3, 1, 6, 0.00,60.00,Tuesday
6,14.0
7,99.0
8,7.1
9,128.0
10,1.1456736916555224
228,14.976013868931144
229,19.606349273512654
230,15.24452683691524
231,19.17840369390629
232,16.930806164165106
233,14.741105578000692
234,16.17003748336628
235,16.37901596024578
721,-3.0646867929280816
722,-5.267219272130144
723,-3.6179666817949895
724,-5.371491662406457
725,-2.594799966983235
726,-3.161424482673682
727,-2.4252438889404348
728,-2.795998081616767
11,0.0
2,3, 1, 3, 1, 7, 0.00,60.00,Tuesday
6,13.6
7,99.0
8,5.1
9,130.0
10,1.148616083017274
228,15.056441317063257
229,19.135168640823726
230,16.700165832533675
231,18.30813216889589
232,17.306974467571988
233,17.124643851271914
234,16.76786707893077
235,16.945508923461096
721,-3.3381347527811799
722,-5.199390612385132
723,-3.903145676801197
724,-5.284337109837131
725,-2.8048742960686945
726,-3.3688249822376008
727,-2.916854311456919
728,-3.015387755927935
11,0.0
2,3, 1, 3, 1, 8, 0.00,60.00,Tuesday
6,14.1
7,99.0
8,3.8
9,111.0
10,1.1472119665530174
228,15.309485542599047
229,17.95859817735124
230,15.942474754686208
231,17.991855918102535
232,16.66549595344602
233,14.630735415369515
234,17.048877227883293
235,16.977453533033896
721,-3.3621934819599774
722,-5.367351568170559
723,-3.60327586671764
724,-5.580381530595312
725,-2.7488467893922898
726,-2.9216641547739634
727,-2.827067809922479
728,-2.9071036586955967
11,0.0
2,3, 1, 3, 1, 9, 0.00,60.00,Tuesday
6,14.7
7,99.0
8,4.7
9,135.0
10,1.1445415330431635
228,16.673285999428047
229,19.424294004836545
230,16.414008254597556
231,19.040836999600356
232,17.10119400547696
233,15.03736108575216
234,17.651521573106938
235,17.43544031710554
721,-3.319588457353653
722,-5.735367235944053
723,-3.7781176625626489
724,-5.695057777100776
725,-2.8724625507445937
726,-3.409716755179925
727,-2.781193242509877
728,-2.910123879846773
11,0.0
2,3, 1, 3, 1,10, 0.00,60.00,Tuesday
6,14.8
7,99.0
8,3.0
9,123.0
10,1.1440143264673784
228,17.7787975729417
229,19.20742584374189
230,17.361781438382108
231,18.001030830300729
232,17.90104879875292
233,15.345684570268194
234,18.35988565275515
235,17.785329049244397
721,-3.0490317007310194
722,-5.3043725107881
723,-3.6620903627794827
724,-5.386442933847946
725,-2.7795634426277955
726,-3.3332500772022297
727,-2.6623982206787435
728,-2.8005963405948774
11,0.0
2,3, 1, 3, 1,11, 0.00,60.00,Tuesday
6,14.9
7,99.0
8,2.4
9,136.0
10,1.1434867491405248
228,17.399472283971329
229,19.388241585914949
230,17.61029294747359
231,18.611847319363805
232,18.092449988205055
233,15.844629237928224
234,17.939046771709405
235,18.29924851430325
721,-2.8261459785281834
722,-5.365972854089371
723,-3.4472663367120308
724,-5.702399044938082
725,-2.598792708919881
726,-3.2736936658348427
727,-2.5171525732946655
728,-2.7035579900142716
11,0.0
2,3, 1, 3, 1,12, 0.00,60.00,Tuesday
6,15.7
7,98.0
8,3.9
9,127.0
10,1.1395882112224126
228,16.44634454703658
229,19.881388941522756
230,17.177877434534346
231,19.95373921946071
232,18.883002131317839
233,16.250064124492778
234,17.95724658197567
235,18.07325383658697
721,-2.877026739200894
722,-5.31441635884551
723,-3.3661038774777389
724,-5.530031544814398
725,-2.4919749584222399
726,-3.1546553882334877
727,-2.5919938186196678
728,-2.546439121629326
11,0.0
2,3, 1, 3, 1,13, 0.00,60.00,Tuesday
6,16.3
7,91.0
8,3.5
9,82.0
10,1.1372431040666014
228,17.225128178522433
229,19.033362081829958
230,18.416597468896538
231,18.763272369191779
232,19.495348045658394
233,17.460229898265945
234,19.31302613051402
235,18.64759852974728