Program Version,EnergyPlus, Version 8.7.0-78a111df4a, YMD=2018.01.28 00:27
1,5,Environment Title[],Latitude[deg],Longitude[deg],Time Zone[],Elevation[m]
2,6,Day of Simulation[],Month[],Day of Month[],DST Indicator[1=yes 0=no],Hour[],StartMinute[],EndMinute[],DayType
3,3,Cumulative Day of Simulation[],Month[],Day of Month[],DST Indicator[1=yes 0=no],DayType  ! When Daily Report Variables Requested
4,2,Cumulative Days of Simulation[],Month[]  ! When Monthly Report Variables Requested
5,1,Cumulative Days of Simulation[] ! When Run Period Report Variables Requested
6,1,Environment,Site Outdoor Air Drybulb Temperature [C] !TimeStep
7,1,Environment,Site Outdoor Air Relative Humidity [%] !TimeStep
8,1,Environment,Site Wind Speed [m/s] !TimeStep
9,1,Environment,Site Wind Direction [deg] !TimeStep
10,1,Environment,Site Outdoor Air Density [kg/m3] !TimeStep
11,1,Environment,Site Rain Status [] !TimeStep
228,1,BLOCK1:ZONE4,Zone Mean Air Temperature [C] !TimeStep,ON
229,1,BLOCK1:ZONE3,Zone Mean Air Temperature [C] !TimeStep,ON
230,1,BLOCK1:ZONE7,Zone Mean Air Temperature [C] !TimeStep,ON
231,1,BLOCK1:ZONE6,Zone Mean Air Temperature [C] !TimeStep,ON
232,1,BLOCK1:ZONE5,Zone Mean Air Temperature [C] !TimeStep,ON
233,1,BLOCK1:ZONE1,Zone Mean Air Temperature [C] !TimeStep,ON
234,1,BLOCK1:ZONE2,Zone Mean Air Temperature [C] !TimeStep,ON
235,1,BLOCK6:ZONE1,Zone Mean Air Temperature [C] !TimeStep,ON
721,1,PEOPLE BLOCK1:ZONE4,Zone Thermal Comfort Fanger Model PMV [] !TimeStep,ON
722,1,PEOPLE BLOCK1:ZONE3,Zone Thermal Comfort Fanger Model PMV [] !TimeStep,ON
723,1,PEOPLE BLOCK1:ZONE7,Zone Thermal Comfort Fanger Model PMV [] !TimeStep,ON
724,1,PEOPLE BLOCK1:ZONE6,Zone Thermal Comfort Fanger Model PMV [] !TimeStep,ON
725,1,PEOPLE BLOCK1:ZONE5,Zone Thermal Comfort Fanger Model PMV [] !TimeStep,ON
726,1,PEOPLE BLOCK1:ZONE1,Zone Thermal Comfort Fanger Model PMV [] !TimeStep,ON
727,1,PEOPLE BLOCK1:ZONE2,Zone Thermal Comfort Fanger Model PMV [] !TimeStep,ON
728,1,PEOPLE BLOCK6:ZONE1,Zone Thermal Comfort Fanger Model PMV [] !TimeStep,ON
End of Data Dictionary
1,SANTA MARIA, -31.41, -52.70,  -3.00, 464.00
2,1, 1, 1, 1, 1, 0.00,60.00,Sunday
6,16.8
7,91.0
8,5.4
9,123.0
10,1.1359486530452514
228,17.177996271480717
229,19.520657311482315
230,17.75954933418757
231,19.499296868393903
232,18.666773752768074
233,16.988976946671018
234,17.6725750033194
235,18.352289161954198
721,-1.7993950579474943
722,-4.724101807064606
723,-1.5875862984004697
724,-4.657582991906697
725,-1.1656474034731848
726,-1.4576259562615453
727,-1.4962527794817245
728,-1.2038861713575496
11,0.0
2,1, 1, 1, 1, 2, 0.00,60.00,Sunday
6,16.5
7,92.0
8,4.6
9,135.0
10,1.1369342048591405
228,18.6502956313898
229,21.295827817795684
230,17.9652350614348
231,20.92735953612422
232,19.53391169753093
233,16.895019548953706
234,20.34680469776231
235,18.01131784245276
721,-2.553047748097216
722,-4.924402888619706
723,-2.8339018304946226
724,-4.888569304197433
725,-2.0218081973831909
726,-2.4395133405541475
727,-2.303788155998079
728,-2.186232240324158
11,0.0
2,1, 1, 1, 1, 3, 0.00,60.00,Sunday
6,16.6
7,92.0
8,4.6
9,143.0
10,1.1365295026141374
228,17.723196797995464
229,19.977948910079829
230,18.00768089669471
231,19.863541451982149
232,19.117762653832285
233,17.217004336588489
234,19.53496372814933
235,17.996347108849489
721,-2.3017051457731498
722,-4.401031597280689
723,-2.8439940042563296
724,-4.46865614760327
725,-1.8959946830023547
726,-2.5148107904751928
727,-1.8015508944644825
728,-2.3111572169861964
11,0.0
2,1, 1, 1, 1, 4, 0.00,60.00,Sunday
6,16.5
7,94.0
8,3.1
9,152.0
10,1.1372042989547578
228,19.786100332834047
229,22.714219914297506
230,18.97644803750744
231,21.35665519317972
232,21.315314417857914
233,17.29908641015274
234,20.29479237880807
235,19.11107185776541
721,-2.4986694620820888
722,-4.7946503617980149
723,-2.872111071233354
724,-4.791934146848161
725,-2.006614076521194
726,-2.4872381346516976
727,-1.9746064267866122
728,-2.35071960580822
11,0.0
2,1, 1, 1, 1, 5, 0.00,60.00,Sunday
6,16.3
7,94.0
8,4.8
9,144.0
10,1.137777485189455
228,18.509624258144564
229,19.616006368019997
230,17.964928414721955
231,21.22949603113364
232,19.16207225501414
233,16.598891705650624
234,19.89594112370923
235,18.097315690102147
721,-2.116173103236078
722,-3.9924145644449235
723,-2.6650412357791977
724,-4.35321758717148
725,-1.6002617149803447
726,-2.494854065021818
727,-1.833352120173479
728,-2.1306604430119524
11,0.0
2,1, 1, 1, 1, 6, 0.00,60.00,Sunday
6,16.4
7,94.0
8,4.7
9,146.0
10,1.1376115044377353
228,17.77379592249719
229,20.17615187737497
230,17.918179714386058
231,19.928391860424179
232,18.873382404613769
233,16.82696932887475
234,18.575961753675455
235,18.01004799169875
721,-2.3738501972512089
722,-4.911052497317072
723,-2.931326728482881
724,-4.3961586650278658
725,-2.041249518510794
726,-2.668471419086007
727,-1.928274085345886
728,-2.3687274490246836
11,0.0
2,1, 1, 1, 1, 7, 0.00,60.00,Sunday
6,17.2
7,93.0
8,6.8
9,153.0
10,1.1340959510640024
228,17.944865787011673
229,20.510775768592269
230,18.04056259468722
231,20.460769423128924
232,18.92759140315653
233,17.35937531212697
234,18.669647578793894
235,17.985982171078605
721,-2.5273736387235328
722,-4.759773162808597
723,-2.96502034099894
724,-4.791280546612135
725,-2.093878951012363
726,-2.6389344002396468
727,-2.2018567206941519
728,-2.3963043089554376
11,0.0
2,1, 1, 1, 1, 8, 0.00,60.00,Sunday
6,18.2
7,84.0
8,7.7
9,140.0
10,1.1316304978873615
228,19.039693045826085
229,21.222367839803334
230,18.66321207472681
231,21.305107116152987
232,19.208574525993716
233,18.72796316093573
234,19.165875350569466
235,18.54874332003825
721,-2.4714897054963189
722,-4.651562475844541
723,-2.9286218227825144
724,-4.6310077685385508
725,-2.0199593593538829
726,-2.504155713540391
727,-2.183354768195072
728,-2.3681960031541564
11,0.0
2,1, 1, 1, 1, 9, 0.00,60.00,Sunday
6,19.4
7,75.0
8,7.9
9,144.0
10,1.128250990973346
228,19.51568030902945
229,20.730173892062873
230,19.709984088604189
231,21.28548705290332
232,20.651037328167456
233,19.447191162320327
234,20.407592314631619
235,19.604180469973764
721,-2.251127622409726
722,-4.44028197606437
723,-2.7792474982419268
724,-4.378022780232527
725,-1.894491307915502
726,-2.2298257453887144
727,-2.0870920568503448
728,-2.2037550669081096
11,0.0
2,1, 1, 1, 1,10, 0.00,60.00,Sunday
6,21.6
7,67.0
8,8.7
9,133.0
10,1.1193658090518289
228,21.399472972228254
229,21.660751895244915
230,21.526962571914539
231,21.76758454835772
232,21.77620478391983
233,21.552353183546577
234,21.43972896112693
235,21.361837855810735
721,-2.1178833959833147
722,-4.606662078783715
723,-2.505873766091533
724,-4.403629384244781
725,-1.5212786055118473
726,-2.0625782190091956
727,-1.8365167942363765
728,-1.9018414793814769
11,0.0
2,1, 1, 1, 1,11, 0.00,60.00,Sunday
6,21.2
7,67.0
8,8.9
9,126.0
10,1.1216193279002236
228,21.11657556528455
229,21.918563183965806
230,21.356830679525527
231,22.177920638608616
232,22.416494118479088
233,21.209778230110513
234,21.806207418751787
235,21.367188859853383
721,-1.687859706117855
722,-4.3152139532083029
723,-2.0426720727198717
724,-4.243183169336882
725,-1.237838735161973
726,-1.611896805533872
727,-1.6066510549155496
728,-1.4407785053413969
11,0.0
2,1, 1, 1, 1,12, 0.00,60.00,Sunday
6,22.0
7,59.0
8,9.1
9,127.0
10,1.1198415694503799
228,21.86134114061948
229,22.557473553629543
230,22.21524049117389
231,22.73862882437195
232,22.626098317651896
233,21.94335482766245
234,22.53780036692935
235,22.192518448966785
721,-1.7018591588656434
722,-4.232088802408303
723,-2.03632909464991
724,-4.1139160954213589
725,-1.0293829236212909
726,-1.646595459416765
727,-1.5190968088422732
728,-1.358161391058779
11,0.0
2,1, 1, 1, 1,13, 0.00,60.00,Sunday
6,23.9
7,54.0
8,8.6
9,116.0
10,1.1113661725305675
228,23.037665406756
229,23.959831656152426
230,23.91884093312002
231,24.051281492863205
232,24.086271038505055
233,23.784836947585057
234,24.317566179275937
235,23.822826882739795
721,-1.5483128168359069
722,-4.060110935236763
723,-1.8404313541021405
724,-3.960940657428651
725,-0.922023481386424
726,-1.5026272252986666
727,-1.3747141560462642
728,-1.1414459874874823
11,0.0
2,1, 1, 1, 1,14, 0.00,60.00,Sunday
6,21.0
7,66.0
8,9.0
9,113.0
10,1.1220914658639743
228,21.1311247214725
229,22.48206932834795
230,21.774219237001334
231,22.592196065660589
232,22.540569283337477
233,21.11190000392923
234,22.117981697733293
235,22.088704466586735
721,-1.2675207953338688
722,-3.620495906322897
723,-1.4066986418789165
724,-3.5484078257283939
725,-0.6291007610898274
726,-1.1041301264221715
727,-0.9832168150344741
728,-0.737368547216333
11,0.0
2,1, 1, 1, 1,15, 0.00,60.00,Sunday
6,20.4
7,66.0
8,8.3
9,115.0
10,1.1252109108450977
228,20.870935024229366
229,21.82925151993973
230,21.085809998819003
231,22.043631931457367
232,22.70376793744723
233,20.704504259458817
234,21.3684283387168
235,21.363886101197516
721,-1.5919593965541168
722,-4.025634701946656
723,-1.8687618740004644
724,-3.949157765882934
725,-0.9358235893115277
726,-1.590971451193527
727,-1.3890507803576924
728,-1.0970914108208357
11,0.0
2,1, 1, 1, 1,16, 0.00,60.00,Sunday
6,20.7
7,67.0
8,9.1
9,121.0
10,1.1230664363386743
228,21.05968987488205
229,21.798524160280939
230,20.940465233609733
231,21.645256749094217
232,23.59350563805973
233,20.795704592054073
234,21.275711771289843
235,21.055926059631316
721,-1.6522070923167643
722,-4.2147136276125789
723,-2.059246014980946
724,-4.107385339442154
725,-0.9533333218761267
726,-1.6941676860081039
727,-1.5459725124593973
728,-1.297899039541324
11,0.0
2,1, 1, 1, 1,17, 0.00,60.00,Sunday
6,18.2
7,82.0
8,8.7
9,122.0
10,1.131652122282624
228,19.294478237934464
229,20.954300610677387
230,19.3627299112674
231,20.88304125467962
232,20.833046463693074
233,18.802556741696095
234,20.557399832933258
235,19.342195430205103
721,-1.6157875947505683
722,-4.216385765990096
723,-2.10933181569024
724,-4.222231556853309
725,-0.8513100440262306
726,-1.686600674834616
727,-1.5608573415060614
728,-1.4150020003474496
11,0.0
2,1, 1, 1, 1,18, 0.00,60.00,Sunday
6,18.8
7,74.0
8,8.9
9,129.0
10,1.1303761914746822
228,19.752038239237299
229,21.440305295227178
230,19.62281410804838
231,21.590228375657714
232,20.4675216318452
233,18.993353156276219
234,20.57152962416574
235,19.662418955277535
721,-1.960599883266334
722,-4.438912811570787
723,-2.4832257796255545
724,-4.424354853571861
725,-1.4004472819983019
726,-2.078164469624471
727,-1.6975556951384892
728,-1.826719042163988
11,0.0
2,1, 1, 1, 1,19, 0.00,60.00,Sunday
6,17.6
7,77.0
8,7.5
9,118.0
10,1.1365542858182583
228,20.796021347509073
229,19.92433549931847
230,18.850882228758917
231,20.609244424992136
232,22.428834641493123
233,17.84305464191712
234,20.57402546333499
235,19.05484243768796
721,-1.9348070817301167
722,-4.317873009022046
723,-2.478430528579648
724,-4.238849072527881
725,-1.5666267755114618
726,-2.1086430871062258
727,-1.7245657992836335
728,-1.8465604792191053
11,0.0
2,1, 1, 1, 1,20, 0.00,60.00,Sunday
6,16.7
7,80.0
8,8.0
9,122.0
10,1.140429905989436
228,17.291574997829828
229,20.051662179535489
230,18.13988446484568
231,20.543108706215013
232,19.805176893234859
233,17.140765226209405
234,18.5562899153739
235,18.36642115922422
721,-1.7772219927295397
722,-4.81632527024125
723,-2.7018930762807957
724,-4.575677777711489
725,-1.2459900897041006
726,-2.383513970860254
727,-1.7612568828792732
728,-2.0542589818308136
11,0.0
2,1, 1, 1, 1,21, 0.00,60.00,Sunday
6,16.2
7,79.0
8,7.9
9,119.0
10,1.1435576207758496
228,17.100836600533229
229,18.750486113032815
230,17.878687211671868
231,18.70656162883105
232,18.92457517425634
233,17.357451182949359
234,18.716167521260386
235,18.05824055947238
721,-2.5131415185266348
722,-4.805043336676104
723,-2.910015213844582
724,-4.622827112322104
725,-1.8213000725734679
726,-2.567676605718563
727,-2.193033014823439
728,-2.264734367001112
11,0.0
2,1, 1, 1, 1,22, 0.00,60.00,Sunday
6,15.9
7,79.0
8,7.2
9,116.0
10,1.145439033722447
228,18.299050818876159
229,19.56851301812965
230,17.603207681737425
231,19.512880187385
232,18.74299080776145
233,16.374675213787577
234,19.670628728236524
235,18.0041895675653
721,-2.6219159560125346
722,-5.2418838883284259
723,-3.0267388535208328
724,-5.224882824632429
725,-2.0582165071431959
726,-2.5766148498993526
727,-2.2083961187109288
728,-2.392282827397388
11,0.0
2,1, 1, 1, 1,23, 0.00,60.00,Sunday
6,15.8
7,83.0
8,6.1
9,112.0
10,1.1451998362429703
228,18.15744546017745
229,18.98533915584071
230,17.264125831972725
231,21.7118688366319
232,20.11682442003262
233,16.137894405468253
234,19.633828879268955
235,17.932967764897677
721,-2.437148537954721
722,-5.032995904952534
723,-3.132353482700813
724,-5.022753807016805
725,-2.1498426907446226
726,-2.8120072589546249
727,-2.0509409119449195
728,-2.4534976816496156
11,0.0
2,1, 1, 1, 1,24, 0.00,60.00,Sunday
6,15.6
7,85.0
8,6.1
9,115.0
10,1.1455528146863357
228,18.193122407505788
229,22.015076977510419
230,17.576225095235104
231,20.79162279015671
232,18.583183643616576
233,16.468823883192035
234,18.69415042233377
235,17.96834045660044
721,-2.481047841901303
722,-5.20667896266018
723,-3.2211266385849006
724,-4.36367307381266
725,-1.9073866396380066
726,-2.879107513491866
727,-2.06206722460627
728,-2.49317692953875
11,0.0
2,2, 1, 2, 1, 1, 0.00,60.00,Monday
6,15.6
7,86.0
8,5.7
9,117.0
10,1.1447355857911915
228,16.878363493191615
229,19.274761009872618
230,16.99508581465732
231,19.746961791452138
232,18.554262078179787
233,16.014733399658327
234,18.361539774287779
235,18.010190127572284
721,-2.4977103365286057
722,-4.315260409247606
723,-3.1732707481760245
724,-4.631039187641919
725,-2.226273189614463
726,-2.8382632690970337
727,-2.257699791359847
728,-2.504003259402996
11,0.0
2,2, 1, 2, 1, 2, 0.00,60.00,Monday
6,15.3
7,86.0
8,5.4
9,117.0
10,1.1456732982421088
228,16.463391211418754
229,19.3372235335274
230,17.909810983626515
231,19.256829229547287
232,18.777053737216993
233,17.0670251081893
234,18.020653118232617
235,17.94002260860821
721,-2.7756728321878074
722,-5.1259108338663499
723,-3.3233124290835818
724,-4.951559147220269
725,-2.269074114309478
726,-2.9513760411704328
727,-2.343425760792608
728,-2.518625149166685
11,0.0
2,2, 1, 2, 1, 3, 0.00,60.00,Monday
6,15.1
7,86.0
8,5.0
9,125.0
10,1.1463365356557165
228,16.62622834183098
229,19.128721357900106
230,17.587475562133084
231,18.04851853998379
232,18.787246755461788
233,15.433077572115087
234,18.278752169765196
235,17.997062072185117
721,-2.89675747105133
722,-5.139298675969873
723,-3.1518718104999068
724,-5.128783736424217
725,-2.255427892816959
726,-2.7728334747870457
727,-2.436536101730746
728,-2.5550829413927289
11,0.0
2,2, 1, 2, 1, 4, 0.00,60.00,Monday
6,15.1
7,87.0
8,5.7
9,129.0
10,1.1457664171164348
228,16.991162580408177
229,19.11904151260477
230,16.266767899212377
231,20.34084020032298
232,17.173861139579324
233,15.659593215321575
234,18.040627749954035
235,17.37415058982728
721,-2.9004521963900817
722,-5.234029194710479
723,-3.251908881530311
724,-5.531594970748165
725,-2.29023042063338
726,-3.1225200270592476
727,-2.4154638576282605
728,-2.570516583164981
11,0.0
2,2, 1, 2, 1, 5, 0.00,60.00,Monday
6,15.1
7,86.0
8,5.0
9,129.0
10,1.1463365356557165
228,16.086016523756166
229,19.13359454321329
230,16.944592853415608
231,18.710979445904927
232,17.883327000185383
233,17.119341427839986
234,18.031682345847288
235,17.767095001495656
721,-2.85077671796045
722,-5.2554342967216229
723,-3.5772873763032497
724,-4.86674852947432
725,-2.6406246096322878
726,-3.105267037511024
727,-2.4797238829686996
728,-2.734616381858584
11,0.0
2,2, 1, 2, 1, 6, 0.00,60.00,Monday
6,15.0
7,85.0
8,6.6
9,128.0
10,1.1470551283110878
228,16.176742511199579
229,19.06788408438488
230,16.87139682447724
231,18.980195871034995
232,18.085956462240384
233,16.37275013084021
234,17.189307412675615
235,17.684244562415768
721,-3.0546681096778904
722,-5.2777292643303339
723,-3.451240567247757
724,-5.37549945261631
725,-2.534345509474711
726,-2.8389803337879155
727,-2.505375035366416
728,-2.6653877430766914
11,0.0
2,2, 1, 2, 1, 7, 0.00,60.00,Monday
6,15.6
7,83.0
8,6.0
9,124.0
10,1.1447738902722818
228,17.148330952327077
229,19.59221961229687
230,18.001102529824644
231,19.611134572672606
232,19.179089852881373
233,17.430904779610189
234,18.529919152827206
235,17.929029651321036
721,-3.0660150563683059
722,-5.328162519003318
723,-3.4910185382858684
724,-5.331584423123658
725,-2.4978209459830666
726,-2.9962086053977434
727,-2.6889298941471528
728,-2.691883716481056
11,0.0
2,2, 1, 2, 1, 8, 0.00,60.00,Monday
6,16.5
7,78.0
8,6.6
9,118.0
10,1.1416597253942587
228,17.1435472438524
229,21.035180672557563
230,17.70728024066026
231,20.037007979014093
232,19.200537315179113
233,16.785955487654566
234,18.266257633760575
235,18.060540498173958
721,-2.878219947652796
722,-5.182290295137266
723,-3.234762035443402
724,-5.153007647693059
725,-2.246873594856613
726,-2.7773455743628525
727,-2.4291604169401519
728,-2.6222474180976635
11,0.0
2,2, 1, 2, 1, 9, 0.00,60.00,Monday
6,17.5
7,73.0
8,8.5
9,121.0
10,1.1380214191527869
228,17.835165367185775
229,19.39121428118064
230,18.33306871130433
231,19.929573887564226
232,18.895692381726414
233,17.756660204195009
234,18.468629883284465
235,18.601065426746268
721,-2.8639784230924438
722,-4.757818504433025
723,-3.284101453564729
724,-5.029090066831607
725,-2.1729179995954879
726,-2.8817681115273565
727,-2.4791557402152559
728,-2.5549161557033814
11,0.0
2,2, 1, 2, 1,10, 0.00,60.00,Monday
6,18.5
7,69.0
8,7.8
9,115.0
10,1.1340046135858649
228,18.614258393551198
229,21.238205168273063
230,18.95248797354204
231,20.31341768451909
232,20.069123699281
233,18.543376771120078
234,19.34873322967489
235,18.877356799295535
721,-2.7030463285073096
722,-5.243229002877969
723,-3.115643565252541
724,-5.061247982492241
725,-2.1656031341133308
726,-2.670323738955831
727,-2.4377409468038615
728,-2.386726909798661
11,0.0
2,2, 1, 2, 1,11, 0.00,60.00,Monday
6,19.8
7,57.0
8,7.5
9,103.0
10,1.1305553742158419
228,19.703681698908804
229,21.156197966479249
230,19.927324031146154
231,20.484394596781674
232,20.618082173264523
233,19.783600004690706
234,19.994986955201424
235,19.893749819369025
721,-2.501652305504338
722,-4.690936996326698
723,-2.920613590140739
724,-4.933685248854323
725,-1.8315803855937297
726,-2.471286750964045
727,-2.2503400073085069
728,-2.2403910091772807
11,0.0
2,2, 1, 2, 1,12, 0.00,60.00,Monday
6,20.5
7,56.0
8,7.3
9,119.0
10,1.1270991003695217
228,20.325528806596166
229,21.380753230348704
230,20.693972193664636
231,21.349092931881957
232,21.124785904384838
233,20.485254558978768
234,21.0027711465852
235,20.74019908536657
721,-2.280079880181385
722,-4.735672849648791
723,-2.691745210733704
724,-4.912296461598115
725,-1.6666720214723699
726,-2.2309368513784548
727,-2.130416059621463
728,-1.9786138284262565
11,0.0
2,2, 1, 2, 1,13, 0.00,60.00,Monday
6,20.5
7,54.0
8,8.4
9,121.0
10,1.1268409606251726
228,20.428730605080017
229,21.204681550247338
230,21.050163169573574
231,21.2564868388329
232,21.653988560445563
233,20.51756162643489
234,21.11436181370929
235,21.25895365746819
721,-2.101408231082127
722,-4.665086214632027
723,-2.4689371208776227
724,-4.650943381061385
725,-1.5029316768104247
726,-2.0531959209432597
727,-1.9074234890808817
728,-1.727087708575835
11,0.0
2,2, 1, 2, 1,14, 0.00,60.00,Monday
6,21.6
7,56.0
8,8.4
9,121.0
10,1.1209486760759429
228,21.38507990734289
229,22.243941596927955
230,21.675963305037269
231,22.276219908207353
232,22.59175107407039
233,21.57091673507718
234,22.201572872210787
235,21.691260228740715
721,-2.0462521501031878
722,-4.705644297338463
723,-2.3556433071619367
724,-4.6623477700356299
725,-1.3510297796938973
726,-2.0207012822988128
727,-1.8677532958587387
728,-1.5624970626316069
11,0.0
2,2, 1, 2, 1,15, 0.00,60.00,Monday
6,21.3
7,49.0
8,8.9
9,111.0
10,1.123554432362637
228,21.175460998867153
229,22.257092294970336
230,21.753995678563798
231,22.37995716455496
232,22.369156996031444
233,21.290170076945278
234,22.072469849419183
235,21.80074602585955
721,-1.7878423959596315
722,-4.354652011927959
723,-2.1661782223908805
724,-4.31654902782845
725,-1.1408287929919066
726,-1.7614794754943247
727,-1.6043139581379398
728,-1.4213238585337707
11,0.0
2,2, 1, 2, 1,16, 0.00,60.00,Monday
6,19.5
7,58.0
8,8.6
9,106.0
10,1.1293525591531353
228,19.800456557494895
229,21.18150049127031
230,20.44169480320065
231,21.508373180853036
232,21.384285851239466
233,19.960455736286666
234,20.565320937942866
235,20.864392512795786
721,-1.8529947580390254
722,-4.342445698682156
723,-2.178553282247519
724,-4.268923880096509
725,-1.2348545284053832
726,-1.8595652896497035
727,-1.6364035618512747
728,-1.421618165092739
11,0.0
2,2, 1, 2, 1,17, 0.00,60.00,Monday
6,19.4
7,51.0
8,7.7
9,102.0
10,1.1317143145052589
228,20.79549948084092
229,21.25351549049028
230,20.129451653244027
231,21.16367661855231
232,20.87813158672666
233,20.04363046877954
234,20.741665249599579
235,20.321523566875884
721,-2.0913301384223099
722,-4.684109876084636
723,-2.4969972622814384
724,-4.557418325607819
725,-1.4771498204308964
726,-2.0986428063048105
727,-1.933278724096892
728,-1.676717967032643
11,0.0
2,2, 1, 2, 1,18, 0.00,60.00,Monday
6,18.7
7,62.0
8,8.1
9,103.0
10,1.1326599905376258
228,19.185821813125807
229,20.632595774795836
230,19.761147247857918
231,20.785580242986194
232,20.5101078612112
233,19.068553036047019
234,20.483833471310317
235,19.842650491579595
721,-1.9229901338098763
722,-4.672521228387088
723,-2.6023347548864339
724,-4.666553337498763
725,-1.6449250542771743
726,-2.1261784274016626
727,-1.928241465687054
728,-1.8523200684410362
11,0.0
2,2, 1, 2, 1,19, 0.00,60.00,Monday
6,17.9
7,66.0
8,6.0
9,107.0
10,1.135575029975802
228,18.58151716024745
229,20.463777828301987
230,19.309822460769806
231,20.819141472335649
232,20.005595698865425
233,18.611900494788416
234,19.853466271350177
235,19.469218182166857
721,-2.226953177171554
722,-4.833505916429294
723,-2.670579322053723
724,-4.7622705596414829
725,-1.7685627407341989
726,-2.2990593163052139
727,-1.956987821688932
728,-1.986683051872447
11,0.0
2,2, 1, 2, 1,20, 0.00,60.00,Monday
6,17.3
7,70.0
8,6.6
9,111.0
10,1.1375765768651048
228,17.908855887627874
229,19.507966167806978
230,18.816906427791186
231,20.469601975261506
232,19.58752481583919
233,17.55061478925993
234,19.579880640115499
235,18.683346428239813
721,-2.3689170621620256
722,-4.875903525762118
723,-2.7841681873580774
724,-4.7462997390319459
725,-1.906759863611886
726,-2.401558298681895
727,-2.0763067964952848
728,-2.1048024275948724
11,0.0
2,2, 1, 2, 1,21, 0.00,60.00,Monday
6,16.6
7,72.0
8,5.5
9,119.0
10,1.140712714559372
228,18.52370777286198
229,20.53399632056805
230,18.0792257464527
231,21.65467043459029
232,20.299224439705218
233,16.88683532855562
234,20.309068814028295
235,18.037338379260406
721,-2.5260605608965265
722,-5.144080461652759
723,-2.915216602411117
724,-4.8350419574030989
725,-2.0258181116548119
726,-2.62417779066813
727,-2.1358234645414466
728,-2.3072184184557185
11,0.0
2,2, 1, 2, 1,22, 0.00,60.00,Monday
6,16.2
7,73.0
8,5.9
9,113.0
10,1.1423595563867464
228,17.927326504649817
229,20.37528726377776
230,18.646791890683919
231,22.529781514915976
232,19.65155737694649
233,17.85031754190334
234,19.050886820233694
235,18.09849793966108
721,-2.4453795115215755
722,-4.856184367754869
723,-3.1073641911509295
724,-4.490378144966715
725,-1.9212539337500925
726,-2.788534845933568
727,-2.0053773444647917
728,-2.4876700850220918
11,0.0
2,2, 1, 2, 1,23, 0.00,60.00,Monday
6,16.0
7,76.0
8,5.0
9,113.0
10,1.1425774087204457
228,16.885841868166574
229,19.814927742227935
230,17.63807082723847
231,19.32668804180406
232,18.44527899984702
233,16.645787091316433
234,18.36177759365356
235,18.030509821140428
721,-2.59343043315333
722,-4.91113217006881
723,-3.0090643860513626
724,-4.234322792109583
725,-2.0747804026764249
726,-2.6232390498770967
727,-2.2613388554682438
728,-2.510923097486086
11,0.0
2,2, 1, 2, 1,24, 0.00,60.00,Monday
6,15.9
7,78.0
8,4.4
9,116.0
10,1.1419199787046302
228,19.059872842504825
229,20.13761293085384
230,17.96728090646324
231,19.53948320473453
232,18.627338963186554
233,16.431580283496677
234,19.79364002996549
235,17.98900951888234
721,-2.8178482870329795
722,-5.07809473941329
723,-3.2425335760107165
724,-5.1804651411752
725,-2.3407846945668928
726,-2.870505684019208
727,-2.4128518890260928
728,-2.5483929605608499
11,0.0
2,3, 1, 3, 1, 1, 0.00,60.00,Tuesday
6,16.0
7,82.0
8,3.4
9,121.0
10,1.1400576313492628
228,17.349425771435244
229,20.525921636295434
230,18.273410148718658
231,20.769638248860184
232,18.827527206610275
233,17.5414887622222
234,18.601212826759818
235,18.269622918739289
721,-2.4188756799003028
722,-4.982636835505232
723,-3.183334548619773
724,-5.1284883682428978
725,-2.3242694300236539
726,-2.9298678089016856
727,-2.1420219842892727
728,-2.5723278878244377
11,0.0
2,3, 1, 3, 1, 2, 0.00,60.00,Tuesday
6,14.6
7,98.0
8,6.9
9,119.0
10,1.1433322065183125
228,15.679668053928348
229,19.021332291237575
230,17.769500234709775
231,19.166470398503458
232,18.438056080704539
233,15.465140523656885
234,17.651966539627158
235,18.632590248306998
721,-2.744765772834785
722,-4.858773228338408
723,-3.112619017002339
724,-4.757937981878843
725,-2.3115480544105027
726,-2.713738186005795
727,-2.3670469350893588
728,-2.5202949900998918
11,0.0
2,3, 1, 3, 1, 3, 0.00,60.00,Tuesday
6,14.4
7,98.0
8,4.6
9,135.0
10,1.1441386545157546
228,15.755717233068589
229,21.356358889421008
230,15.650857408278135
231,18.471929339469157
232,16.968278165365008
233,14.786279952558914
234,17.85458116069946
235,16.956688733949954
721,-3.0681539841473897
722,-5.281969237457061
723,-3.2004911026013285
724,-5.209579995480258
725,-2.3888786193060627
726,-3.105946380637815
727,-2.5437782055117057
728,-2.4362266451628167
11,0.0
2,3, 1, 3, 1, 4, 0.00,60.00,Tuesday
6,14.7
7,99.0
8,5.0
9,132.0
10,1.1419995586916668
228,15.84870514817102
229,18.10921596572751
230,16.591365716169226
231,20.305977007290197
232,17.5480539213654
233,15.324360082336636
234,17.86344304468442
235,17.61746197720519
721,-3.094317775944318
722,-4.59568558445731
723,-3.719112461509927
724,-5.42975475060082
725,-2.7098502576841816
726,-3.2809023549573994
727,-2.52726277433031
728,-2.828137137112522
11,0.0
2,3, 1, 3, 1, 5, 0.00,60.00,Tuesday
6,14.7
7,99.0
8,5.2
9,129.0
10,1.1418785122939764
228,16.769087358260259
229,18.457884865585855
230,16.58406759119613
231,18.272392378293018
232,17.292040974506418
233,15.962063181035488
234,18.390978516531399
235,17.1820146786145
721,-3.093298964630524
722,-5.559543166127161
723,-3.5193412265080368
724,-4.887943540692354
725,-2.615327454690949
726,-3.1936899792752264
727,-2.5356819064070619
728,-2.6911009693572707
11,0.0
2,3, 1, 3, 1, 6, 0.00,60.00,Tuesday
6,14.0
7,99.0
8,7.1
9,128.0
10,1.1456736916555224
228,15.862482710373943
229,18.655470027417203
230,15.417147051458067
231,19.299683859718188
232,17.46658577766233
233,14.417597579425732
234,18.003540587825087
235,16.256114977286793
721,-2.939453874338095
722,-5.48490148458858
723,-3.5471638369241029
724,-5.5126250531390259
725,-2.6992510427441269
726,-3.0892419523519227
727,-2.4475415565989375
728,-2.802934524591366
11,0.0
2,3, 1, 3, 1, 7, 0.00,60.00,Tuesday
6,13.6
7,99.0
8,5.1
9,130.0
10,1.148616083017274
228,15.080940997710881
229,17.924559750364599
230,16.09958419740803
231,18.043099425034705
232,18.496407993547338
233,15.406139698572084
234,17.245729246830338
235,16.9464249882876
721,-3.1559850977460695
722,-5.477894752179744
723,-3.867057369155503
724,-5.259227030520628
725,-2.71104820599326
726,-3.4357663966360327
727,-2.5461935574143035
728,-3.04611452640949
11,0.0
2,3, 1, 3, 1, 8, 0.00,60.00,Tuesday
6,14.1
7,99.0
8,3.8
9,111.0
10,1.1472119665530174
228,15.348498031158325
229,18.307426199654868
230,17.75772700513454
231,19.726854017343937
232,17.793043263764507
233,15.371576172577218
234,17.186916189327865
235,17.803635008988534
721,-3.3459188195752729
722,-5.739528496572909
723,-3.7416888583058718
724,-5.677759104364653
725,-2.522760194829132
726,-3.2739285232514465
727,-2.723842463139145
728,-2.913273439240779
11,0.0
2,3, 1, 3, 1, 9, 0.00,60.00,Tuesday
6,14.7
7,99.0
8,4.7
9,135.0
10,1.1445415330431635
228,15.645320845664357
229,20.302680059392768
230,15.878597956115176
231,18.39698883286828
232,17.063337218034098
233,15.892111555724608
234,17.217587173013098
235,17.24949899316122
721,-3.3031958218556949
722,-5.638491096449324
723,-3.3655155819329529
724,-5.185104382453048
725,-2.6435228785258788
726,-3.2760338384735538
727,-2.7415345936484525
728,-2.7276178691673369
11,0.0
2,3, 1, 3, 1,10, 0.00,60.00,Tuesday
6,14.8
7,99.0
8,3.0
9,123.0
10,1.1440143264673784
228,15.986228139581334
229,18.548471235813876
230,16.22985265039586
231,18.895923362311988
232,17.385520697626217
233,15.961663549108458
234,17.72842638637616
235,17.44274038566884
721,-3.2407543676361998
722,-5.046547174700813
723,-3.7782423620063696
724,-5.575363036842601
725,-2.7829777200597127
726,-3.16456498455254
727,-2.733056416067786
728,-2.843014162524205
11,0.0
2,3, 1, 3, 1,11, 0.00,60.00,Tuesday
6,14.9
7,99.0
8,2.4
9,136.0
10,1.1434867491405248
228,16.82317311324234
229,18.278247506435667
230,17.411882894492178
231,18.03481377262287
232,18.619340705731319
233,17.05726365484556
234,18.29759311836385
235,17.702066057744099
721,-3.172862916982545
722,-5.560379170541495
723,-3.705721725571698
724,-5.434228961237804
725,-2.705389837254076
726,-3.147212029552424
727,-2.6349015826961459
728,-2.7823241662672126
11,0.0
2,3, 1, 3, 1,12, 0.00,60.00,Tuesday
6,15.7
7,98.0
8,3.9
9,127.0
10,1.1395882112224126
228,16.384139487325169
229,18.585561082609006
230,17.06952435718383
231,19.403490958668969
232,17.847483450157925
233,16.715115207465336
234,17.98427852367421
235,17.841652110541508
721,-2.995872321592097
722,-5.651038626091107
723,-3.4225908746821207
724,-5.699740700934783
725,-2.395501334651308
726,-2.9070481284246205
727,-2.5215725374275896
728,-2.6773736503606919
11,0.0
2,3, 1, 3, 1,13, 0.00,60.00,Tuesday
6,16.3
7,91.0
8,3.5
9,82.0
10,1.1372431040666014
228,17.07637515200156
229,19.741074719134166
230,18.057827863807839
231,18.69091687325754
232,18.494863164841225
233,16.934057328509124
234,19.559012168504695