Program Version,EnergyPlus, Version 8.7.0-78a111df4a, YMD=2018.01.23 16:25
1,5,Environment Title[],Latitude[deg],Longitude[deg],Time Zone[],Elevation[m]
2,6,Day of Simulation[],Month[],Day of Month[],DST Indicator[1=yes 0=no],Hour[],StartMinute[],EndMinute[],DayType
3,3,Cumulative Day of Simulation[],Month[],Day of Month[],DST Indicator[1=yes 0=no],DayType  ! When Daily Report Variables Requested
4,2,Cumulative Days of Simulation[],Month[]  ! When Monthly Report Variables Requested
5,1,Cumulative Days of Simulation[] ! When Run Period Report Variables Requested
6,1,Environment,Site Outdoor Air Drybulb Temperature [C] !TimeStep
7,1,Environment,Site Outdoor Air Relative Humidity [%] !TimeStep
8,1,Environment,Site Wind Speed [m/s] !TimeStep
9,1,Environment,Site Wind Direction [deg] !TimeStep
10,1,Environment,Site Outdoor Air Density [kg/m3] !TimeStep
11,1,Environment,Site Rain Status [] !TimeStep
228,1,BLOCK1:ZONE4,Zone Mean Air Temperature [C] !TimeStep,ON
229,1,BLOCK1:ZONE3,Zone Mean Air Temperature [C] !TimeStep,ON
230,1,BLOCK1:ZONE7,Zone Mean Air Temperature [C] !TimeStep,ON
231,1,BLOCK1:ZONE6,Zone Mean Air Temperature [C] !TimeStep,ON
232,1,BLOCK1:ZONE5,Zone Mean Air Temperature [C] !TimeStep,ON
233,1,BLOCK1:ZONE1,Zone Mean Air Temperature [C] !TimeStep,ON
234,1,BLOCK1:ZONE2,Zone Mean Air Temperature [C] !TimeStep,ON
235,1,BLOCK6:ZONE1,Zone Mean Air Temperature [C] !TimeStep,ON
721,1,PEOPLE BLOCK1:ZONE4,Zone Thermal Comfort Fanger Model PMV [] !TimeStep,ON
722,1,PEOPLE BLOCK1:ZONE3,Zone Thermal Comfort Fanger Model PMV [] !TimeStep,ON
723,1,PEOPLE BLOCK1:ZONE7,Zone Thermal Comfort Fanger Model PMV [] !TimeStep,ON
724,1,PEOPLE BLOCK1:ZONE6,Zone Thermal Comfort Fanger Model PMV [] !TimeStep,ON
725,1,PEOPLE BLOCK1:ZONE5,Zone Thermal Comfort Fanger Model PMV [] !TimeStep,ON
726,1,PEOPLE BLOCK1:ZONE1,Zone Thermal Comfort Fanger Model PMV [] !TimeStep,ON
727,1,PEOPLE BLOCK1:ZONE2,Zone Thermal Comfort Fanger Model PMV [] !TimeStep,ON
728,1,PEOPLE BLOCK6:ZONE1,Zone Thermal Comfort Fanger Model PMV [] !TimeStep,ON
End of Data Dictionary
1,SANTA MARIA, -29.70, -53.70,  -3.00, 114.00
2,1, 1, 1, 1, 1, 0.00,60.00,Sunday
6,16.4
7,74.0
8,1.9
9,0.0
10,1.1867456435709126
228,19.156876407631694
229,17.990141383065404
230,19.740287891038159
231,18.019561754807087
232,20.400871219802448
233,19.55214125305096
234,18.41418705357003
235,18.9411596687496
721,-1.5185974321052325
722,-4.650727922022022
723,-1.1994795055327293
724,-4.607545734891045
725,-0.8427274278346858
726,-1.005333209926896
727,-1.4693443689497819
728,-0.6698174230789256
11,0.0
2,1, 1, 1, 1, 2, 0.00,60.00,Sunday
6,16.1
7,76.0
8,2.2
9,0.0
10,1.18905531979585
228,20.36317721058076
229,19.040497190130677
230,20.523319794193314
231,18.9549852500977
232,20.96427530460256
233,20.69674427262562
234,19.39555242559372
235,18.224828937697756
721,-2.062158899404261
722,-5.398077619706669
723,-2.31633138635101
724,-5.367233119954213
725,-1.6282745431961936
726,-1.863287313344846
727,-2.129148294356976
728,-1.978839345900012
11,0.0
2,1, 1, 1, 1, 3, 0.00,60.00,Sunday
6,15.7
7,79.0
8,2.4
9,0.0
10,1.190480107100925
228,20.221809319094008
229,18.573177244998548
230,20.20920810032664
231,18.483775633728734
232,20.84673716992141
233,20.724720113739957
234,19.312195847597026
235,18.17619923722296
721,-1.8697201411184553
722,-5.120737101781126
723,-2.207082604449678
724,-5.125424575802786
725,-1.5719370170217658
726,-1.6750305879851609
727,-1.9647274760186962
728,-2.218877450018996
11,0.0
2,1, 1, 1, 1, 4, 0.00,60.00,Sunday
6,15.3
7,82.0
8,2.6
9,0.0
10,1.1919321643551578
228,19.741129480096967
229,18.27725097971485
230,19.464579150725279
231,18.18616952682224
232,20.178935927347504
233,20.02725923982299
234,18.794718229002215
235,17.674382345396564
721,-1.9318494008376062
722,-5.282594411817253
723,-2.3169140597093809
724,-5.291706047837656
725,-1.6422027912428315
726,-1.6992992674441106
727,-2.0088308727062129
728,-2.2848369737699749
11,0.0
2,1, 1, 1, 1, 5, 0.00,60.00,Sunday
6,14.9
7,84.0
8,2.9
9,0.0
10,1.1948252795460309
228,19.451362566756275
229,17.907053689347206
230,18.64551496562213
231,17.977950044819367
232,19.608360810834605
233,19.4104929828718
234,18.617044911369889
235,16.848583262370736
721,-2.0551976749692137
722,-5.398081740652146
723,-2.5263435799898774
724,-5.41063874253597
725,-1.814305401458905
726,-1.8633325794048879
727,-2.130074748467349
728,-2.441754707022255
11,0.0
2,1, 1, 1, 1, 6, 0.00,60.00,Sunday
6,14.5
7,88.0
8,3.1
9,0.0
10,1.1961261923124238
228,19.101497781889507
229,17.61830065020532
230,17.716407713064535
231,17.999938249889188
232,18.58877925438685
233,18.281272572413039
234,18.409121189040734
235,16.05515244062097
721,-2.148004700399599
722,-5.5455998946202629
723,-2.7710016728587805
724,-5.511913312614636
725,-1.978313803257221
726,-2.0230742593132664
727,-2.1981150463189369
728,-2.678399532990959
11,0.0
2,1, 1, 1, 1, 7, 0.00,60.00,Sunday
6,15.3
7,82.0
8,3.1
9,0.0
10,1.1931401104662714
228,19.214824648229905
229,18.190862768852158
230,17.38709453975696
231,18.102609365755478
232,18.129182050267116
233,17.79162220530291
234,18.66715422396537
235,16.179918028844108
721,-2.2256469120060498
722,-5.655326475520368
723,-3.0224706605959388
724,-5.527015642122348
725,-2.1820237501926869
726,-2.2427903700021796
727,-2.2534988554840198
728,-2.8800237050690424
11,0.0
2,1, 1, 1, 1, 8, 0.00,60.00,Sunday
6,16.2
7,77.0
8,3.1
9,0.0
10,1.18951953830162
228,19.501826055518998
229,18.704410762087869
230,17.71041250214667
231,18.65322317645623
232,18.42116473331624
233,18.065965361741556
234,18.886508599353716
235,16.880959853035188
721,-2.167221125962918
722,-5.516746218247221
723,-3.121452500504441
724,-5.529786350859904
725,-2.2537518328999406
726,-2.3160064410693725
727,-2.2078664421629705
728,-2.851594555641972
11,0.0
2,1, 1, 1, 1, 9, 0.00,60.00,Sunday
6,17.0
7,72.0
8,3.1
9,180.0
10,1.18651444739062
228,20.1590859133387
229,19.615710284685336
230,18.000237642800529
231,19.554382835329954
232,18.716738303418976
233,17.411047419581914
234,18.828910996358994
235,17.934356137876855
721,-2.068018812999643
722,-5.378404328394951
723,-3.0476018449113906
724,-5.386809880258975
725,-2.162461536835735
726,-2.2547016233102759
727,-2.162360135165754
728,-2.657534545938865
11,0.0
2,1, 1, 1, 1,10, 0.00,60.00,Sunday
6,17.8
7,68.0
8,3.1
9,180.0
10,1.1833618065420034
228,20.481796704216536
229,19.77943706813686
230,18.365654470194973
231,19.702424318947725
232,19.093918695490076
233,18.148172381200494
234,18.933657146792496
235,18.42656526231212
721,-1.9047250641707657
722,-5.11937848829451
723,-2.9714951462256344
724,-5.134177098533807
725,-2.0564657664503929
726,-2.3970637885356136
727,-2.1817523146469486
728,-2.3704333969698898
11,0.0
2,1, 1, 1, 1,11, 0.00,60.00,Sunday
6,18.7
7,64.0
8,3.1
9,180.0
10,1.1797805227552039
228,20.86105549192027
229,20.33026056376051
230,19.153545463762673
231,20.2566809282068
232,19.829502807147106
233,18.944970602950428
234,19.58698136105313
235,19.22716586478333
721,-1.8105196105202746
722,-5.066826340035438
723,-2.872851789519617
724,-5.089009551471691
725,-1.9386445431552502
726,-2.2653871945162868
727,-2.1589003337198227
728,-2.1940318598625718
11,0.0
2,1, 1, 1, 1,12, 0.00,60.00,Sunday
6,19.5
7,60.0
8,3.1
9,180.0
10,1.1756036337402656
228,21.181291877203358
229,20.820102338264897
230,19.879373209963778
231,20.740738153911907
232,20.48660093225837
233,19.667642766513258
234,20.14023426027484
235,19.945068231689278
721,-1.7089898943038633
722,-4.893241209391281
723,-2.656000195699455
724,-4.916866289686482
725,-1.7172235753083547
726,-2.106684399734642
727,-2.015155337956314
728,-1.9283293109888767
11,0.0
2,1, 1, 1, 1,13, 0.00,60.00,Sunday
6,20.3
7,56.0
8,3.1
9,180.0
10,1.1727090500758178
228,21.41638556562736
229,21.401843957383293
230,20.502554385793247
231,21.324718915683726
232,21.00702842945506
233,20.3934026313242
234,20.63883737909361
235,20.578805641708436
721,-1.631554956115268
722,-4.740280532618264
723,-2.485148348939959
724,-4.767164124650548
725,-1.5590474031550439
726,-1.9732431981821597
727,-1.8897924535815592
728,-1.7185766478539356
11,0.0
2,1, 1, 1, 1,14, 0.00,60.00,Sunday
6,21.2
7,53.0
8,3.1
9,180.0
10,1.169117571827395
228,21.85947153100275
229,22.01310884982991
230,21.379848045997695
231,21.94436622175768
232,21.84887595914809
233,21.236194189953826
234,21.410615927355019
235,21.456030014579058
721,-1.562699370013723
722,-4.552484444726876
723,-2.292868140373247
724,-4.5780791286679449
725,-1.3813415114420434
726,-1.8118052214199492
727,-1.7690988315112855
728,-1.4867285604239118
11,0.0
2,1, 1, 1, 1,15, 0.00,60.00,Sunday
6,22.0
7,50.0
8,3.1
9,180.0
10,1.1660948804546756
228,22.190348017234219
229,22.70221654787794
230,22.06873659859502
231,22.62867628784619
232,22.429013437199214
233,21.999845153282874
234,21.978075035919674
235,22.126239531667939
721,-1.450326166719016
722,-4.349218674532374
723,-2.0534458074444634
724,-4.370340135251112
725,-1.1745156600814906
726,-1.624444527377611
727,-1.5937316477201509
728,-1.2227259968916089
11,0.0
2,1, 1, 1, 1,16, 0.00,60.00,Sunday
6,21.3
7,54.0
8,2.8
9,180.0
10,1.168323477141796
228,22.470498007572304
229,22.21743357819063
230,21.64009834387128
231,22.134040404872409
232,22.28619589472912
233,21.3489294782553
234,21.952867556560869
235,21.94309737746014
721,-1.3586355807212032
722,-4.12864964533368
723,-1.8688065247149515
724,-4.149280607987045
725,-1.0526633199768399
726,-1.4608062073394537
727,-1.4608959606861954
728,-1.024651343654835
11,0.0
2,1, 1, 1, 1,17, 0.00,60.00,Sunday
6,20.7
7,57.0
8,2.6
9,180.0
10,1.1692420273128495
228,22.41643411905776
229,21.817658742333739
230,21.153216538885489
231,21.733615709694314
232,21.828474023507746
233,20.8143605816621
234,21.466585085650313
235,21.474591184334807
721,-1.2826128042573018
722,-4.2296706972352979
723,-1.926133920617439
724,-4.251493106119727
725,-1.074603526560934
726,-1.5576209463093845
727,-1.4490317833883624
728,-1.024306207607659
11,0.0
2,1, 1, 1, 1,18, 0.00,60.00,Sunday
6,20.0
7,62.0
8,2.3
9,180.0
10,1.171344321831812
228,22.16685774115738
229,21.407397771978468
230,20.603234876922426
231,21.341337682614708
232,21.30537774989201
233,20.19395714787578
234,21.031423584756554
235,20.967279920048
721,-1.2743354084433474
722,-4.321252041881707
723,-2.016382776909026
724,-4.343882690253994
725,-1.1998782167397746
726,-1.6639673149579315
727,-1.5325904249593945
728,-1.1303569370513114
11,0.0
2,1, 1, 1, 1,19, 0.00,60.00,Sunday
6,19.3
7,67.0
8,2.0
9,180.0
10,1.1735490980840758
228,21.807011023030176
229,21.006500419943124
230,20.083343407042606
231,20.92544883127243
232,20.773278498006254
233,19.624647336479045
234,20.609435986729225
235,20.441249554734065
721,-1.3121348590824636
722,-4.412243881397465
723,-2.123892589486387
724,-4.430452929780158
725,-1.3439734687725285
726,-1.7547469918271406
727,-1.6106991076721265
728,-1.271913388353077
11,0.0
2,1, 1, 1, 1,20, 0.00,60.00,Sunday
6,18.7
7,72.0
8,1.8
9,180.0
10,1.1753326526214337
228,21.406670450983826
229,20.783297590016884
230,19.77168829745839
231,20.699695291900249
232,20.454727259361478
233,19.09006909853931
234,20.4163750712978
235,20.052304608747308
721,-1.38459211109655
722,-4.505947688782417
723,-2.278921311926451
724,-4.530473926780123
725,-1.4978252179383585
726,-1.8967527262709799
727,-1.6926527573841224
728,-1.466747370710527
11,0.0
2,1, 1, 1, 1,21, 0.00,60.00,Sunday
6,18.0
7,77.0
8,1.5
9,270.0
10,1.177721835680087
228,20.336486959418758
229,20.36986130895715
230,19.45988904219634
231,20.251721134623617
232,20.16279606489917
233,18.67381077785524
234,20.352185207319577
235,19.822134738251788
721,-1.4782523125722956
722,-4.549962950164559
723,-2.3835053976972659
724,-4.577230200003806
725,-1.6053754114122772
726,-2.0315999461180138
727,-1.7340762594421444
728,-1.6366500125790369
11,0.0
2,1, 1, 1, 1,22, 0.00,60.00,Sunday
6,17.9
7,77.0
8,1.6
9,270.0
10,1.1782458660945719
228,20.264227946805634
229,20.328367282023316
230,19.289811027287429
231,20.208896249446675
232,19.964548511673738
233,18.563392989615339
234,20.22328858136345
235,19.60377380418323
721,-1.7099469799062704
722,-4.6602763263226099
723,-2.4780969690726417
724,-4.700048404389473
725,-1.6953899309415924
726,-2.134680477562867
727,-1.7566509929473957
728,-1.7574666277789025
11,0.0
2,1, 1, 1, 1,23, 0.00,60.00,Sunday
6,17.8
7,77.0
8,1.7
9,270.0
10,1.1787695994807755
228,20.0259344760092
229,20.249617985064384
230,19.167898223362529
231,20.127235018041547
232,19.820584083135729
233,18.443746423716595
234,20.134374411270657
235,19.444286495726815
721,-1.763844566449823
722,-4.681238601424722
723,-2.546172695243557
724,-4.7231261482115489
725,-1.766934577314192
726,-2.1859425367603926
727,-1.797314850275688
728,-1.866108492649595
11,0.0
2,1, 1, 1, 1,24, 0.00,60.00,Sunday
6,17.7
7,77.0
8,1.8
9,270.0
10,1.180491016007277
228,19.873292851316273
229,20.197845475529417
230,19.073789521285904
231,20.070163738390155
232,19.69134752414285
233,18.33681683430715
234,20.143583923111284
235,19.310330379405728
721,-1.8472132566460689
722,-4.715230986483586
723,-2.602236767314211
724,-4.759151213860134
725,-1.8273839592774535
726,-2.235799280652956
727,-1.8324226371596968
728,-1.9530207884541416
11,0.0
2,2, 1, 2, 1, 1, 0.00,60.00,Monday
6,17.6
7,77.0
8,1.9
9,270.0
10,1.181014575649281
228,19.78650982667215
229,20.195877732802239
230,19.036903890053464
231,20.057438226713594
232,19.620545877345859
233,18.245115685486476
234,20.28652809545219
235,19.233395590722084
721,-1.911646376612097
722,-4.742769546483128
723,-2.650467154228902
724,-4.788967599932629
725,-1.8838557940472094
726,-2.281730936906587
727,-1.8459410959620056
728,-2.0260818559522284
11,0.0
2,2, 1, 2, 1, 2, 0.00,60.00,Monday
6,17.4
7,77.0
8,2.0
9,270.0
10,1.1820608311139068
228,19.530199659125388
229,19.99911716407651
230,18.868175855123519
231,19.8571718359314
232,19.499797175282646
233,18.021527452364965
234,20.191201171209408
235,19.110318597584766
721,-1.9622321020883123
722,-4.758406087154492
723,-2.6858224888469559
724,-4.808140835530688
725,-1.930865585171864
726,-2.3241594292887215
727,-1.8380612856566257
728,-2.082193812853514
11,0.0
2,2, 1, 2, 1, 3, 0.00,60.00,Monday
6,17.3
7,77.0
8,2.1
9,270.0
10,1.1825835335184352
228,19.395599492902606
229,19.96437194947986
230,18.71621992916929
231,19.820800140145047
232,19.289284448219378
233,17.935236393191969
234,20.021147594875307
235,18.893795278273897
721,-2.0454318408654355
722,-4.835397985727915
723,-2.7508393859300614
724,-4.88648997684097
725,-1.9853916316482885
726,-2.3941695154565867
727,-1.8742609916450106
728,-2.143028683087958
11,0.0
2,2, 1, 2, 1, 4, 0.00,60.00,Monday
6,17.2
7,77.0
8,2.2
9,270.0
10,1.184305996058987
228,19.224033776773557
229,19.86879412456762
230,18.593047876876864
231,19.724423967458767
232,19.165779500314565
233,17.81902364745268
234,19.9217902159038
235,18.76470350174695
721,-2.101887794715387
722,-4.863059200361476
723,-2.8119425045612207
724,-4.914483086667506
725,-2.05735329782857
726,-2.4344528499868707
727,-1.9262220556875945
728,-2.2196712389312509
11,0.0
2,2, 1, 2, 1, 5, 0.00,60.00,Monday
6,17.1
7,77.0
8,2.3
9,270.0
10,1.1848285540551507
228,19.067239640315117
229,19.782488768359586
230,18.473237623951389
231,19.637057635932949
232,19.029295223451518
233,17.70633465810473
234,19.818177616763906
235,18.62835343413422
721,-2.1642281408314738
722,-4.909734617512475
723,-2.865760759299902
724,-4.961310097963773
725,-2.1122289054696128
726,-2.480607807468922
727,-1.9635338456991332
728,-2.276418497281981
11,0.0
2,2, 1, 2, 1, 6, 0.00,60.00,Monday
6,17.0
7,77.0
8,2.4
9,270.0
10,1.1853508363867389
228,18.896025047599509
229,19.657773122222737
230,18.379431437036499
231,19.51057524692429
232,18.96276210888444
233,17.57593872274477
234,19.79798385596963
235,18.56542837437183
721,-2.2223554692174316
722,-4.954154408249623
723,-2.918027396004683
724,-5.005831331312151
725,-2.1673692795161467
726,-2.5251517757675239
727,-2.001422886657948
728,-2.331326003849682
11,0.0
2,2, 1, 2, 1, 7, 0.00,60.00,Monday
6,18.0
7,73.0
8,2.3
9,270.0
10,1.1811034955000644
228,19.594400982726844
229,20.149551407112079
230,18.96771890318105
231,20.015485297419234
232,19.351429997971147
233,18.553079032256293
234,20.024864875822315
235,18.950507117494604
721,-2.232713739433938
722,-5.008691731746755
723,-2.9460635251991835
724,-5.061442187444746
725,-2.169338168130583
726,-2.503582884332806
727,-1.9995936629497367
728,-2.3413433174346638
11,0.0
2,2, 1, 2, 1, 8, 0.00,60.00,Monday
6,19.0
7,68.0
8,2.2
9,270.0
10,1.1772089596907345
228,20.231889751733378
229,20.684850756906529
230,19.658099898851295
231,20.57467207066045
232,19.96876740218912
233,19.403155931674975
234,20.399186857450009
235,19.681071800113096
721,-2.0284993144319025
722,-4.863053668660921
723,-2.8076011135564165
724,-4.912126329684463
725,-2.062156934092126
726,-2.265696015391091
727,-1.9410448364483202
728,-2.218787378352174
11,0.0
2,2, 1, 2, 1, 9, 0.00,60.00,Monday
6,20.0
7,64.0
8,2.1
9,90.0
10,1.1719769304734667
228,20.69223747269782
229,21.540930544575898
230,20.597386777300927
231,21.468108571320017
232,20.821357389989474
233,20.28258436745817
234,20.89099761851023
235,20.668074201292489
721,-1.829809047717923
722,-4.700854055809592
723,-2.6245562310348
724,-4.743134547654081
725,-1.8908746814228812
726,-2.059856195611736
727,-1.848308262511755
728,-1.9873184432831386
11,0.0
2,2, 1, 2, 1,10, 0.00,60.00,Monday
6,21.0
7,60.0
8,2.0
9,90.0
10,1.1680428017372396
228,21.49217072062701
229,22.315367130639154
230,21.52683976051131
231,22.240263425039605
232,21.660439754514596
233,21.154185270933664
234,22.42150743390987
235,21.601835165619418
721,-1.674032472409827
722,-4.430519679452708
723,-2.3644461949103219
724,-4.461440215803904
725,-1.6383205183922303
726,-1.846431137261929
727,-1.7304544279174639
728,-1.6724717826302127
11,0.0
2,2, 1, 2, 1,11, 0.00,60.00,Monday
6,22.0
7,57.0
8,1.9
9,90.0
10,1.163909341787394
228,22.252659293866264
229,22.98597763711953
230,22.53212353429524
231,22.945024682071673
232,22.530803917312203
233,21.97516639242873
234,24.185125999779588
235,22.641043387712867
721,-1.4735067693544147
722,-4.181389119724117
723,-2.10219968213804
724,-4.2122053094068578
725,-1.3970028859396527
726,-1.655217904161775
727,-1.4045124890267693
728,-1.3592831970594437
11,0.0
2,2, 1, 2, 1,12, 0.00,60.00,Monday
6,23.0
7,53.0
8,1.8
9,90.0
10,1.159014152208067
228,22.995688190693348
229,23.358268119310293
230,23.284116583975636
231,23.299608438738628
232,23.27433469166015
233,22.79687672371587
234,24.859277158222569
235,23.532820967648186
721,-1.2825337534863642
722,-3.9471204028590538
723,-1.8135377287733757
724,-3.9670981519036796
725,-1.1310306992295503
726,-1.4703415517694583
727,-1.0003976841509262
728,-1.0132206621106317
11,0.0
2,2, 1, 2, 1,13, 0.00,60.00,Monday
6,24.0
7,50.0
8,1.7
9,90.0
10,1.1550781964232786
228,23.628180055283317
229,23.76419314277147
230,23.886588909085814
231,23.72109171026615
232,23.91561291933332
233,23.487301893537059
234,24.48724128678516
235,24.36150400621094
721,-1.1064378194548855
722,-3.801918734993408
723,-1.581933594380665
724,-3.8257559016960904
725,-0.8890517031791509
726,-1.2828598745012965
727,-0.8092893798931937
728,-0.7042636860929373
11,0.0
2,2, 1, 2, 1,14, 0.00,60.00,Monday
6,25.0
7,47.0
8,1.6
9,90.0
10,1.1512394761214556
228,24.257987523134447
229,24.273457851073588
230,24.48150329332282
231,24.2559531089627
232,24.45862089283576
233,23.99713947650576
234,24.126575480200086
235,25.282922831739055
721,-0.9427363196304475
722,-3.639475422240213
723,-1.378498972604984
724,-3.655977501510776
725,-0.6914350192836715
726,-1.1101957049822036
727,-0.8232943739588373
728,-0.4112658129147045
11,0.0
2,2, 1, 2, 1,15, 0.00,60.00,Monday
6,26.0
7,45.0
8,1.5
9,90.0
10,1.1459482524609129
228,24.83296286529335
229,24.77805639903761
230,24.992800966217115
231,24.769616671294349
232,24.92550210342454
233,24.459043560058043
234,24.377928056305426
235,26.462281463404133
721,-0.7784741977162875
722,-3.4445619687833566
723,-1.1796941711288225
724,-3.450459913805792
725,-0.5317789350205414
726,-0.9661492052383958
727,-0.8493109715848428
728,-0.11648538825400921
11,0.0
2,2, 1, 2, 1,16, 0.00,60.00,Monday
6,25.2
7,48.0
8,1.3
9,90.0
10,1.14871682952865
228,24.553047317654494
229,24.611898461014229
230,24.891991975619093
231,24.58491060500355
232,24.9667443078648
233,24.491233331182685
234,24.392016555149284
235,25.770297355139677
721,-0.6121059887876582
722,-3.2415383930901169
723,-0.9889154540119998
724,-3.242327765547205
725,-0.40107210128332079
726,-0.8310613880247104
727,-0.7555105052320259
728,0.2284961577082058
11,0.0
2,2, 1, 2, 1,17, 0.00,60.00,Monday
6,24.3
7,52.0
8,1.2
9,90.0
10,1.1517121948163336
228,24.301085477339613
229,24.424394367007495
230,24.397705648170555
231,24.367038982188576
232,24.63605952316082
233,24.03901373173028
234,24.23801577970957
235,25.230010299523778
721,-0.6224189215158751
722,-3.240370791154057
723,-0.9623608797602767
724,-3.2447505723430427
725,-0.3817656430950177
726,-0.7879936262724461
727,-0.7239516646721323
728,0.14260103733388769
11,0.0
2,2, 1, 2, 1,18, 0.00,60.00,Monday
6,23.5
7,55.0
8,1.0
9,90.0
10,1.154669076524779
228,24.004585808520159
229,24.13334987092294
230,23.89953448019018
231,24.07326478207117
232,24.191939469641178
233,23.447355445498557
234,24.00843223435735
235,24.66340166709658
721,-0.6389173495214234
722,-3.2490740702129745
723,-1.0170652137132608
724,-3.2622097436286516
725,-0.46665191918578116
726,-0.8558175766600245
727,-0.7338554690078751
728,0.040004080956929987
11,0.0
2,2, 1, 2, 1,19, 0.00,60.00,Monday
6,22.7
7,59.0
8,0.8
9,90.0
10,1.157377553591129
228,23.64355995029815
229,23.7255437872498
230,23.238832020541897
231,23.635221179558039
232,23.617069351012355
233,22.82891915878421
234,23.598952758397834
235,23.91591537165197
721,-0.6866969010755339
722,-3.300452312130051
723,-1.1027879828453793
724,-3.313762193855032
725,-0.5844223109008166
726,-0.928107004018595
727,-0.7742389452894669
728,-0.11756695730692062
11,0.0
2,2, 1, 2, 1,20, 0.00,60.00,Monday
6,21.8
7,64.0
8,0.7
9,90.0
10,1.1592102085940624
228,23.093232252235418
229,23.237552887614155
230,22.74946585395536
231,23.14076876954262
232,23.160875927253149
233,22.049945727857947
234,23.19243748502289
235,23.302791185059414
721,-0.756591623460521
722,-3.386365993208796
723,-1.2747377980458093
724,-3.4084838573091726
725,-0.7432086983689895
726,-1.0589668962473429
727,-0.8525667466673211
728,-0.3621476363110232
11,0.0
2,2, 1, 2, 1,21, 0.00,60.00,Monday
6,21.0
7,69.0
8,0.5
9,140.0
10,1.1618371215786272
228,22.75318745077232
229,22.783959494977759
230,22.11328546474525
231,22.723135156441186
232,22.62973181360463
233,21.336331991117914
234,22.735536049831699
235,22.625443883054836
721,-0.8733992230334902
722,-3.4926456149173465
723,-1.413142549777264
724,-3.517737279817095
725,-0.8659436690343095
726,-1.2258094888243239
727,-0.9282817200001918
728,-0.5911313073268052
11,0.0
2,2, 1, 2, 1,22, 0.00,60.00,Monday
6,20.4
7,71.0
8,0.5
9,140.0
10,1.1643821363329235
228,22.33199758021503
229,22.37980145051834
230,21.62813879418279
231,22.293258039323669
232,22.17937746224829
233,20.82677206010132
234,22.35705433322113
235,22.08683711797361
721,-0.9569344948229925
722,-3.5943978872558257
723,-1.5706781377356605
724,-3.610639500135318
725,-0.9972355246308164
726,-1.3706999752821308
727,-1.0181182804932343
728,-0.8146237157591215
11,0.0
2,2, 1, 2, 1,23, 0.00,60.00,Monday
6,19.8
7,73.0
8,0.5
9,140.0
10,1.1681449117014029
228,21.98199441116067
229,22.02394552224726
230,21.125302875204424
231,21.931258519184934
232,21.624765255667378
233,20.32651730310565
234,21.88219261401004
235,21.479138904219377
721,-1.071929700064927
722,-3.7111349647849356
723,-1.707031656227949
724,-3.737128134464975
725,-1.1167876024136674
726,-1.4934324753767699
727,-1.1043779665661116
728,-1.0048470045088148
11,0.0
2,2, 1, 2, 1,24, 0.00,60.00,Monday
6,19.2
7,76.0
8,0.6
9,140.0
10,1.1704826897498473
228,21.521578745797365
229,21.585126410289733
230,20.656968126798824
231,21.476654740601963
232,21.328593300250355
233,19.773331105210287
234,21.636235316959107
235,21.078037158605864
721,-1.1766709023218292
722,-3.8245227791002405
723,-1.8537416363297835
724,-3.854786894649853
725,-1.261356279525155
726,-1.6188652149945389
727,-1.2159184526998733
728,-1.2038710032974476
11,0.0
2,3, 1, 3, 1, 1, 0.00,60.00,Tuesday
6,18.6
7,79.0
8,0.6
9,140.0
10,1.1728649882593912
228,21.178796130793289
229,21.232085578097896
230,20.143723081569499
231,21.10936676055329
232,20.730907744196608
233,19.26959568516345
234,21.113413996500758
235,20.45470072715439
721,-1.3003058794015452
722,-3.960604446760142
723,-1.9920586198650239
724,-3.997932642643117
725,-1.358900307109195
726,-1.7520086702960929
727,-1.2855859831862114
728,-1.3553490730595664
11,0.0
2,3, 1, 3, 1, 2, 0.00,60.00,Tuesday
6,17.9
7,82.0
8,0.6
9,140.0
10,1.1770179795073784
228,20.711046598899747
229,20.739887818158807
230,19.571043092501925
231,20.601895861063228
232,20.190419702764947
233,18.651691839696086
234,20.627488751196844
235,19.86315056054955
721,-1.4032301316048555
722,-4.079083073015923
723,-2.143160652163387
724,-4.123256497129397
725,-1.5150816670964527
726,-1.8803068324869697
727,-1.4074443957343073
728,-1.5447873342063974
11,0.0
2,3, 1, 3, 1, 3, 0.00,60.00,Tuesday
6,17.3
7,85.0
8,0.6
9,140.0
10,1.1794883778926824
228,20.31744245324577
229,20.324267757685477
230,19.068559827304616
231,20.175031035837788
232,19.722487803104096
233,18.121385500053298
234,20.219535478388396
235,19.348051676809307
721,-1.535572404174197
722,-4.249619606389882
723,-2.316055746904023
724,-4.301276879658816
725,-1.6662452397734585
726,-2.0386053111487385
727,-1.5311916005968136
728,-1.7315754156381867
11,0.0
2,3, 1, 3, 1, 4, 0.00,60.00,Tuesday
6,16.7
7,87.0
8,0.7
9,140.0
10,1.1822261551267588
228,20.129068690996875
229,20.048727126905669
230,18.70874216444107
231,19.878068371341166
232,19.334229174036886
233,17.605829487063347
234,20.331721226662326
235,18.905748826738756
721,-1.6535504696582005
722,-4.400381395556777
723,-2.474548048455121
724,-4.458419442757208
725,-1.8048722254907599
726,-2.181107797109726
727,-1.6413392525561837
728,-1.8997798838054945
11,0.0
2,3, 1, 3, 1, 5, 0.00,60.00,Tuesday
6,16.1
7,91.0
8,0.7
9,140.0
10,1.1857485123383638
228,19.679114430599456
229,19.5965047330995
230,18.225580296126574
231,19.409981337814778
232,18.924370666725915
233,17.056144267369754
234,19.94018235241265
235,18.46758106381261
721,-1.7363505733093925
722,-4.519637339407354
723,-2.6051598349340128
724,-4.586929089572491
725,-1.930621095695038
726,-2.3281443245394888
727,-1.6527301352859012
728,-2.051717147302483
11,0.0
2,3, 1, 3, 1, 6, 0.00,60.00,Tuesday
6,15.5
7,94.0
8,0.7
9,140.0
10,1.1883328150824207
228,19.21602631366509
229,19.131537058124154
230,17.96263572367255
231,18.9198141503784
232,18.67173424321405
233,16.508268491907978
234,19.573356708014726
235,18.152480910529805
721,-1.8636115226710324
722,-4.68486691257839
723,-2.7606647812351414
724,-4.7596804543895179
725,-2.059268411940994
726,-2.476007849332929
727,-1.7585161854232874
728,-2.200116706590561
11,0.0
2,3, 1, 3, 1, 7, 0.00,60.00,Tuesday
6,17.0
7,86.0
8,0.8
9,140.0
10,1.182055467871186
228,20.135014115600286
229,19.985508578747436
230,18.613783132395527
231,19.807110281017179
232,19.153876253606147
233,17.869447057311939
234,20.112240814407487
235,18.714705875137978
721,-1.9462284264554633
722,-4.859748735923569
723,-2.8479864547894588
724,-4.945712544208585
725,-2.1060915692714
726,-2.554365883033479
727,-1.8422721032854608
728,-2.2866301660005479
11,0.0
2,3, 1, 3, 1, 8, 0.00,60.00,Tuesday
6,18.5
7,79.0
8,0.9
9,140.0
10,1.1745881638412832
228,20.817919954048145
229,20.804037938801419
230,19.58917403221522
231,20.652341093265166
232,20.00639447558685
233,19.101005647931506
234,20.492635093792459
235,19.656845302521679
721,-1.7112380985382927
722,-4.620881848647008
723,-2.706194337493643
724,-4.698648549261803
725,-1.9795018677808152
726,-2.2533813038364438
727,-1.7344962813675878
728,-2.1366269280953955
11,0.0
2,3, 1, 3, 1, 9, 0.00,60.00,Tuesday
6,20.0
7,73.0
8,1.0
9,140.0
10,1.1682864825736863
228,21.740608474115317
229,21.725717224479636
230,20.670782252725667
231,21.600390685911408
232,20.929323254945925
233,20.362367001768257
234,21.265445170935775
235,20.75238800239703
721,-1.5010553123372175
722,-4.371420279636489
723,-2.458454881131328
724,-4.44248587385628
725,-1.7550370156108833
726,-1.9680774698406174
727,-1.6414278868518702
728,-1.8549668012479122
11,0.0
2,3, 1, 3, 1,10, 0.00,60.00,Tuesday
6,21.5
7,67.0
8,1.1
9,140.0
10,1.1622050089238177
228,22.613208016187575
229,22.643478843480659
230,21.777059884581424
231,22.521850560366667
232,21.96928687690451
233,21.612639842274456
234,22.072255104295939
235,21.95492804801849
721,-1.2513059200784005
722,-4.076676609405749
723,-2.159899128885322
724,-4.140102237750368
725,-1.474056110681695
726,-1.6731681246588187
727,-1.4589636737436905
728,-1.5007969701236046
11,0.0
2,3, 1, 3, 1,11, 0.00,60.00,Tuesday
6,23.0
7,62.0
8,1.2
9,140.0
10,1.1548616778354588
228,23.466013421499853
229,23.651708401599895
230,22.95053961501228
231,23.54632053213488
232,23.00980593084087
233,22.882243069076666
234,23.021393720486864
235,23.292888691341415
721,-1.0280427664682875
722,-3.7773807855985259
723,-1.8464688396062224
724,-3.8388455261406899
725,-1.1756989668277663
726,-1.3989472618886785
727,-1.263402649792829
728,-1.1095598763909763
11,0.0
2,3, 1, 3, 1,12, 0.00,60.00,Tuesday
6,24.5
7,57.0
8,1.2
9,140.0
10,1.1489150147025853
228,24.222658066646205
229,24.384651232673677
230,24.246812228007657
231,24.26104151544109
232,24.132030030338166
233,24.09090341255411
234,23.961466668550256
235,24.72104381646126
721,-0.8153148480720297
722,-3.4412843781326845
723,-1.513498666021774
724,-3.496910626463028
725,-0.8673723133853174
726,-1.1221319640602677
727,-1.0273484415534149
728,-0.6860993614690506
11,0.0
2,3, 1, 3, 1,13, 0.00,60.00,Tuesday
6,26.0
7,53.0
8,1.3
9,140.0
10,1.1428145119163605
228,24.92810539525212
229,25.04402023188368
230,25.435197787623346
231,24.981252684068808
232,25.225118992487525
233,25.268457783091557